LAMMPS data file. Created by Zhi (Shane) Yue from an equilibrated data via write_data, version 1 Mar 2016, timestep = 2000245

         800  atoms
         528  bonds
         288  angles

           5  atom types
           2  bond types
           2  angle types


     0.00000     20.12429 xlo xhi
     0.00000     20.12429 ylo yhi
     0.00000     20.12429 zlo zhi

Masses

       1    15.9994  # OW
       2      1.008  # HW
       3    15.9994  # OH
       4      1.008  # HO
       5      35.45  # Cl

Atoms # full

       1       1     1   -0.8200           13.304           16.052            5.590  # OW
       2       1     2    0.4100           14.225           16.454            5.832  # HW
       3       1     2    0.4100           12.552           16.732            5.898  # HW
       4       2     1   -0.8200           14.052            6.113           14.156  # OW
       5       2     2    0.4100           13.622            6.789           14.792  # HW
       6       2     2    0.4100           15.057            6.219           14.314  # HW
       7       3     1   -0.8200           12.682            7.955           16.020  # OW
       8       3     2    0.4100           12.693            8.992           15.700  # HW
       9       3     2    0.4100           13.290            7.823           16.898  # HW
      10       4     1   -0.8200            2.888           17.853           13.957  # OW
      11       4     2    0.4100            3.924           17.842           13.797  # HW
      12       4     2    0.4100            2.620           16.907           13.945  # HW
      13       5     1   -0.8200           16.382           17.596           17.800  # OW
      14       5     2    0.4100           16.953           18.125           18.395  # HW
      15       5     2    0.4100           17.058           16.891           17.450  # HW
      16       6     1   -0.8200            5.372           11.104            3.172  # OW
      17       6     2    0.4100            6.152           11.755            3.142  # HW
      18       6     2    0.4100            5.551           10.483            4.023  # HW
      19       7     1   -0.8200           18.571           10.108            5.861  # OW
      20       7     2    0.4100           17.932            9.910            5.022  # HW
      21       7     2    0.4100           18.886           11.039            5.822  # HW
      22       8     1   -0.8200           18.671           15.759           13.105  # OW
      23       8     2    0.4100           19.304           15.697           13.933  # HW
      24       8     2    0.4100           17.830           15.437           13.555  # HW
      25       9     1   -0.8200           14.034            8.726            2.053  # OW
      26       9     2    0.4100           13.508            9.644            2.183  # HW
      27       9     2    0.4100           14.960            9.146            1.835  # HW
      28      10     1   -0.8200           12.456            2.657            6.737  # OW
      29      10     2    0.4100           11.863            3.411            7.128  # HW
      30      10     2    0.4100           12.857            2.968            5.839  # HW
      31      11     1   -0.8200           18.945           16.400            3.985  # OW
      32      11     2    0.4100           19.475           15.526            4.227  # HW
      33      11     2    0.4100           18.404           16.019            3.229  # HW
      34      12     1   -0.8200           12.031           13.552            8.956  # OW
      35      12     2    0.4100           12.309           12.657            9.285  # HW
      36      12     2    0.4100           11.694           14.156            9.666  # HW
      37      13     1   -0.8200            2.553            9.873            7.142  # OW
      38      13     2    0.4100            1.759            9.904            7.825  # HW
      39      13     2    0.4100            2.136            9.922            6.253  # HW
      40      14     1   -0.8200            6.951            2.221           19.353  # OW
      41      14     2    0.4100            7.342            2.704            0.078  # HW
      42      14     2    0.4100            7.400            2.502           18.470  # HW
      43      15     1   -0.8200           12.332            6.320           11.956  # OW
      44      15     2    0.4100           12.897            6.664           11.200  # HW
      45      15     2    0.4100           12.944            6.084           12.727  # HW
      46      16     1   -0.8200            5.667           11.420           10.717  # OW
      47      16     2    0.4100            6.286           12.194           10.685  # HW
      48      16     2    0.4100            6.220           10.738           11.202  # HW
      49      17     1   -0.8200           16.840           18.486            3.627  # OW
      50      17     2    0.4100           17.471           17.715            3.416  # HW
      51      17     2    0.4100           17.130           18.910            4.493  # HW
      52      18     1   -0.8200            8.392            2.966            7.801  # OW
      53      18     2    0.4100            9.150            3.631            7.519  # HW
      54      18     2    0.4100            8.581            1.946            7.640  # HW
      55      19     1   -0.8200           14.125            2.752            4.515  # OW
      56      19     2    0.4100           14.595            3.046            3.638  # HW
      57      19     2    0.4100           14.689            2.000            4.986  # HW
      58      20     1   -0.8200            6.606            8.154           13.472  # OW
      59      20     2    0.4100            6.477            9.035           14.053  # HW
      60      20     2    0.4100            7.223            7.521           14.042  # HW
      61      21     1   -0.8200           20.025            9.468           15.616  # OW
      62      21     2    0.4100           19.351            9.511           16.377  # HW
      63      21     2    0.4100           19.603            8.986           14.784  # HW
      64      22     1   -0.8200            0.994           12.375           12.377  # OW
      65      22     2    0.4100            1.462           12.951           13.023  # HW
      66      22     2    0.4100            1.741           12.115           11.695  # HW
      67      23     1   -0.8200           12.074            2.699           11.322  # OW
      68      23     2    0.4100           11.579            3.389           10.787  # HW
      69      23     2    0.4100           13.052            3.066           11.399  # HW
      70      24     1   -0.8200            4.220           11.324           13.628  # OW
      71      24     2    0.4100            4.145           12.382           13.672  # HW
      72      24     2    0.4100            3.304           10.917           13.656  # HW
      73      25     1   -0.8200            3.066            1.449           12.268  # OW
      74      25     2    0.4100            3.894            1.180           11.700  # HW
      75      25     2    0.4100            3.355            2.137           13.017  # HW
      76      26     1   -0.8200            3.825           17.126            8.290  # OW
      77      26     2    0.4100            4.523           17.746            8.676  # HW
      78      26     2    0.4100            4.408           16.505            7.600  # HW
      79      27     1   -0.8200            1.841           18.938           11.457  # OW
      80      27     2    0.4100            2.190           19.893           11.407  # HW
      81      27     2    0.4100            2.040           18.603           12.403  # HW
      82      28     1   -0.8200           10.889            3.736           14.160  # OW
      83      28     2    0.4100            9.925            3.736           13.796  # HW
      84      28     2    0.4100           11.522            3.819           13.390  # HW
      85      29     1   -0.8200           11.140           17.486            6.005  # OW
      86      29     2    0.4100           10.656           18.129            5.368  # HW
      87      29     2    0.4100           10.520           16.619            5.911  # HW
      88      30     1   -0.8200            6.130            6.614            9.758  # OW
      89      30     2    0.4100            6.513            7.324           10.371  # HW
      90      30     2    0.4100            6.365            5.636           10.009  # HW
      91      31     1   -0.8200            8.582            1.617            1.656  # OW
      92      31     2    0.4100            8.889            1.377            0.673  # HW
      93      31     2    0.4100            7.721            1.123            1.956  # HW
      94      32     1   -0.8200           10.426            6.289            3.189  # OW
      95      32     2    0.4100           10.229            7.276            3.052  # HW
      96      32     2    0.4100           11.374            6.156            2.796  # HW
      97      33     1   -0.8200           10.480            0.527           18.515  # OW
      98      33     2    0.4100           11.040            0.037           17.867  # HW
      99      33     2    0.4100           11.115            1.190           19.036  # HW
     100      34     1   -0.8200           18.887            8.108            8.197  # OW
     101      34     2    0.4100           18.164            7.915            8.909  # HW
     102      34     2    0.4100           18.466            8.474            7.328  # HW
     103      35     1   -0.8200           18.261            6.886            3.124  # OW
     104      35     2    0.4100           19.237            6.911            2.787  # HW
     105      35     2    0.4100           17.677            6.782            2.278  # HW
     106      36     1   -0.8200            5.596            8.325           18.227  # OW
     107      36     2    0.4100            5.522            9.289           17.845  # HW
     108      36     2    0.4100            6.334            8.387           18.893  # HW
     109      37     1   -0.8200            6.095            9.464            5.235  # OW
     110      37     2    0.4100            7.038            8.980            5.250  # HW
     111      37     2    0.4100            5.420            8.672            5.221  # HW
     112      38     1   -0.8200            4.244            3.260           19.002  # OW
     113      38     2    0.4100            5.151            2.879           18.987  # HW
     114      38     2    0.4100            3.650            2.413           18.964  # HW
     115      39     1   -0.8200            8.357           17.882           15.967  # OW
     116      39     2    0.4100            7.759           17.293           16.612  # HW
     117      39     2    0.4100            8.769           17.293           15.196  # HW
     118      40     1   -0.8200           18.042           19.411           18.952  # OW
     119      40     2    0.4100           18.071            0.177           19.520  # HW
     120      40     2    0.4100           18.787           18.791           19.364  # HW
     121      41     1   -0.8200            7.842           13.991           19.528  # OW
     122      41     2    0.4100            7.254           13.120           19.605  # HW
     123      41     2    0.4100            7.425           14.648            0.120  # HW
     124      42     1   -0.8200           10.966           16.028            3.104  # OW
     125      42     2    0.4100           10.645           15.390            2.314  # HW
     126      42     2    0.4100           10.556           15.586            3.956  # HW
     127      43     1   -0.8200            5.542           17.681           14.030  # OW
     128      43     2    0.4100            6.059           16.770           14.183  # HW
     129      43     2    0.4100            6.193           18.352           13.486  # HW
     130      44     1   -0.8200            6.359           15.593            1.012  # OW
     131      44     2    0.4100            6.137           15.370            1.948  # HW
     132      44     2    0.4100            5.487           15.306            0.492  # HW
     133      45     1   -0.8200           18.815           12.891            6.765  # OW
     134      45     2    0.4100           19.381           12.926            7.614  # HW
     135      45     2    0.4100           17.844           12.611            6.988  # HW
     136      46     1   -0.8200            8.487            0.246            7.597  # OW
     137      46     2    0.4100            9.221           19.935            8.179  # HW
     138      46     2    0.4100            8.710            0.144            6.594  # HW
     139      47     1   -0.8200           16.518           14.152            5.363  # OW
     140      47     2    0.4100           16.651           14.075            4.345  # HW
     141      47     2    0.4100           16.091           13.260            5.723  # HW
     142      48     1   -0.8200            3.224            5.664           11.883  # OW
     143      48     2    0.4100            2.275            5.959           11.548  # HW
     144      48     2    0.4100            3.627            6.260           12.571  # HW
     145      49     1   -0.8200            3.341            6.324            8.048  # OW
     146      49     2    0.4100            2.429            6.114            7.684  # HW
     147      49     2    0.4100            3.493            5.493            8.691  # HW
     148      50     1   -0.8200            4.890           10.349           16.480  # OW
     149      50     2    0.4100            5.072           10.800           15.566  # HW
     150      50     2    0.4100            3.858           10.210           16.408  # HW
     151      51     1   -0.8200           16.282            2.040           10.917  # OW
     152      51     2    0.4100           16.866            1.482           10.332  # HW
     153      51     2    0.4100           15.930            1.490           11.698  # HW
     154      52     1   -0.8200           17.031            4.558            4.251  # OW
     155      52     2    0.4100           17.364            3.830            3.617  # HW
     156      52     2    0.4100           17.547            5.442            4.185  # HW
     157      53     1   -0.8200            3.942           14.806           20.013  # OW
     158      53     2    0.4100            2.956           14.492           20.121  # HW
     159      53     2    0.4100            3.861           15.840           19.887  # HW
     160      54     1   -0.8200            3.775           15.695           10.607  # OW
     161      54     2    0.4100            3.386           15.202           11.401  # HW
     162      54     2    0.4100            3.000           16.209           10.163  # HW
     163      55     1   -0.8200            9.526           10.656            0.661  # OW
     164      55     2    0.4100           10.293           11.370            0.528  # HW
     165      55     2    0.4100            9.619           10.336            1.627  # HW
     166      56     1   -0.8200           18.574           17.754            8.310  # OW
     167      56     2    0.4100           18.035           17.993            9.125  # HW
     168      56     2    0.4100           19.318           17.069            8.508  # HW
     169      57     1   -0.8200           13.273           12.586            3.545  # OW
     170      57     2    0.4100           13.826           12.836            2.772  # HW
     171      57     2    0.4100           12.737           11.749            3.353  # HW
     172      58     1   -0.8200           11.901           18.519           17.176  # OW
     173      58     2    0.4100           12.865           18.493           16.740  # HW
     174      58     2    0.4100           11.615           17.573           17.404  # HW
     175      59     1   -0.8200            2.934           12.318            3.038  # OW
     176      59     2    0.4100            3.787           11.696            3.157  # HW
     177      59     2    0.4100            3.226           13.290            2.933  # HW
     178      60     1   -0.8200           15.355            4.334           17.123  # OW
     179      60     2    0.4100           14.857            3.937           16.308  # HW
     180      60     2    0.4100           15.017            5.262           17.513  # HW
     181      61     1   -0.8200            7.711            9.631           11.682  # OW
     182      61     2    0.4100            8.711            9.627           11.648  # HW
     183      61     2    0.4100            7.198            9.077           12.393  # HW
     184      62     1   -0.8200           13.655           17.268            8.592  # OW
     185      62     2    0.4100           13.840           16.293            8.798  # HW
     186      62     2    0.4100           13.771           17.621            9.507  # HW
     187      63     1   -0.8200            1.264            8.058           18.144  # OW
     188      63     2    0.4100            0.293            7.661           18.365  # HW
     189      63     2    0.4100            1.440            7.707           17.176  # HW
     190      64     1   -0.8200           18.167           19.657           13.384  # OW
     191      64     2    0.4100           17.150           19.863           13.280  # HW
     192      64     2    0.4100           18.377           19.619           14.397  # HW
     193      65     1   -0.8200           14.754           19.649            2.003  # OW
     194      65     2    0.4100           15.601           19.698            2.621  # HW
     195      65     2    0.4100           14.961           19.566            0.996  # HW
     196      66     1   -0.8200            5.867            5.710            3.466  # OW
     197      66     2    0.4100            6.574            5.366            4.135  # HW
     198      66     2    0.4100            5.405            6.516            3.918  # HW
     199      67     1   -0.8200            4.583            5.886           19.835  # OW
     200      67     2    0.4100            5.577            5.824           19.692  # HW
     201      67     2    0.4100            4.224            4.978           19.518  # HW
     202      68     1   -0.8200           16.673           14.702           14.567  # OW
     203      68     2    0.4100           15.930           14.801           13.872  # HW
     204      68     2    0.4100           16.212           14.167           15.349  # HW
     205      69     1   -0.8200            8.762           16.186            8.280  # OW
     206      69     2    0.4100            9.182           15.959            9.153  # HW
     207      69     2    0.4100            9.099           15.472            7.620  # HW
     208      70     1   -0.8200           19.503           19.152            2.023  # OW
     209      70     2    0.4100           20.019           19.042            2.919  # HW
     210      70     2    0.4100           18.896           19.987            2.129  # HW
     211      71     1   -0.8200            6.163           14.833           14.364  # OW
     212      71     2    0.4100            6.674           14.372           15.144  # HW
     213      71     2    0.4100            5.168           14.890           14.559  # HW
     214      72     1   -0.8200           14.920            4.529            2.487  # OW
     215      72     2    0.4100           15.593            4.644            3.239  # HW
     216      72     2    0.4100           14.068            5.043            2.689  # HW
     217      73     1   -0.8200            0.845           18.342            4.186  # OW
     218      73     2    0.4100            0.239           17.536            4.231  # HW
     219      73     2    0.4100            1.332           18.464            5.089  # HW
     220      74     1   -0.8200           11.955            8.570            8.767  # OW
     221      74     2    0.4100           12.522            8.405            7.872  # HW
     222      74     2    0.4100           11.098            8.986            8.375  # HW
     223      75     1   -0.8200           18.281           11.396            2.233  # OW
     224      75     2    0.4100           19.055           11.426            2.928  # HW
     225      75     2    0.4100           17.740           12.278            2.203  # HW
     226      76     1   -0.8200            8.225            9.686            8.992  # OW
     227      76     2    0.4100            8.190            9.757            9.939  # HW
     228      76     2    0.4100            7.563           10.225            8.424  # HW
     229      77     1   -0.8200           14.272            5.537            5.502  # OW
     230      77     2    0.4100           14.284            4.627            5.049  # HW
     231      77     2    0.4100           14.657            5.226            6.438  # HW
     232      78     1   -0.8200            0.470            3.739           12.703  # OW
     233      78     2    0.4100            0.593            3.597           13.714  # HW
     234      78     2    0.4100            0.643            4.772           12.396  # HW
     235      79     1   -0.8200           17.930           19.005            5.969  # OW
     236      79     2    0.4100           18.323           18.782            6.941  # HW
     237      79     2    0.4100           18.632           19.708            5.663  # HW
     238      80     1   -0.8200           13.133            6.332            3.127  # OW
     239      80     2    0.4100           13.465            7.202            2.640  # HW
     240      80     2    0.4100           13.232            6.381            4.166  # HW
     241      81     1   -0.8200            0.988           16.919            9.409  # OW
     242      81     2    0.4100            1.302           17.441            8.574  # HW
     243      81     2    0.4100            1.338           17.559           10.165  # HW
     244      82     1   -0.8200            0.997            2.080            1.301  # OW
     245      82     2    0.4100            0.123            2.036            1.821  # HW
     246      82     2    0.4100            0.884            1.696            0.342  # HW
     247      83     1   -0.8200            4.676            3.914            6.490  # OW
     248      83     2    0.4100            4.690            4.002            7.498  # HW
     249      83     2    0.4100            3.800            3.369            6.253  # HW
     250      84     1   -0.8200           10.409           14.166           17.791  # OW
     251      84     2    0.4100           10.686           13.196           17.707  # HW
     252      84     2    0.4100            9.410           14.323           18.050  # HW
     253      85     1   -0.8200           16.080            7.424           11.665  # OW
     254      85     2    0.4100           16.040            8.330           12.192  # HW
     255      85     2    0.4100           15.231            7.480           11.090  # HW
     256      86     1   -0.8200            5.034            0.770           10.466  # OW
     257      86     2    0.4100            5.603            0.194            9.831  # HW
     258      86     2    0.4100            4.809            1.712           10.084  # HW
     259      87     1   -0.8200            6.665           14.481           11.868  # OW
     260      87     2    0.4100            6.292           14.706           12.758  # HW
     261      87     2    0.4100            7.375           13.735           11.856  # HW
     262      88     1   -0.8200            2.260           10.459           16.769  # OW
     263      88     2    0.4100            2.298           11.449           16.533  # HW
     264      88     2    0.4100            1.285           10.085           16.728  # HW
     265      89     1   -0.8200            6.656           11.072            7.311  # OW
     266      89     2    0.4100            6.168           10.353            6.782  # HW
     267      89     2    0.4100            7.445           11.372            6.718  # HW
     268      90     1   -0.8200            1.616           17.468           17.387  # OW
     269      90     2    0.4100            0.988           17.703           18.176  # HW
     270      90     2    0.4100            2.538           17.559           17.742  # HW
     271      91     1   -0.8200            2.113           14.979            5.963  # OW
     272      91     2    0.4100            1.227           14.799            5.518  # HW
     273      91     2    0.4100            2.797           14.924            5.247  # HW
     274      92     1   -0.8200           14.911            3.086            0.134  # OW
     275      92     2    0.4100           15.889            2.842            0.152  # HW
     276      92     2    0.4100           14.861            3.710            0.927  # HW
     277      93     1   -0.8200           20.076           14.056            4.721  # OW
     278      93     2    0.4100            0.028           13.233            4.100  # HW
     279      93     2    0.4100           19.570           13.704            5.540  # HW
     280      94     1   -0.8200           13.172           10.876            6.644  # OW
     281      94     2    0.4100           13.228            9.890            6.357  # HW
     282      94     2    0.4100           12.510           10.932            7.397  # HW
     283      95     1   -0.8200           14.469           14.807            9.147  # OW
     284      95     2    0.4100           13.858           14.132            8.766  # HW
     285      95     2    0.4100           14.506           14.753           10.196  # HW
     286      96     1   -0.8200            5.222            6.386           16.338  # OW
     287      96     2    0.4100            5.301            7.068           17.066  # HW
     288      96     2    0.4100            6.063            6.185           15.838  # HW
     289      97     1   -0.8200           12.485            2.280           19.325  # OW
     290      97     2    0.4100           12.464            2.308           18.243  # HW
     291      97     2    0.4100           13.493            2.477           19.563  # HW
     292      98     1   -0.8200           19.410            1.256            5.928  # OW
     293      98     2    0.4100            0.274            1.497            5.815  # HW
     294      98     2    0.4100           19.044            1.273            4.922  # HW
     295      99     1   -0.8200            8.517           12.759           12.272  # OW
     296      99     2    0.4100            9.125           13.522           11.934  # HW
     297      99     2    0.4100            9.094           11.927           12.168  # HW
     298     100     1   -0.8200           15.119            4.544            7.811  # OW
     299     100     2    0.4100           14.627            3.693            8.049  # HW
     300     100     2    0.4100           15.938            4.198            7.334  # HW
     301     101     1   -0.8200            7.651            8.378            0.983  # OW
     302     101     2    0.4100            6.814            9.012            1.028  # HW
     303     101     2    0.4100            8.229            8.417            1.862  # HW
     304     102     1   -0.8200            0.020            4.547           19.489  # OW
     305     102     2    0.4100           19.809            5.089           18.680  # HW
     306     102     2    0.4100            0.204            5.154            0.172  # HW
     307     103     1   -0.8200            8.254            0.101           17.048  # OW
     308     103     2    0.4100            8.404           19.358           16.452  # HW
     309     103     2    0.4100            9.136            0.364           17.560  # HW
     310     104     1   -0.8200           11.411            4.963            0.482  # OW
     311     104     2    0.4100           11.417            4.212           19.981  # HW
     312     104     2    0.4100           11.020            4.612            1.383  # HW
     313     105     1   -0.8200            3.567            0.669           18.189  # OW
     314     105     2    0.4100            3.658           19.859           18.657  # HW
     315     105     2    0.4100            2.608            0.912           18.073  # HW
     316     106     1   -0.8200           17.737            2.077           20.068  # OW
     317     106     2    0.4100           17.562            1.669            0.885  # HW
     318     106     2    0.4100           18.277            2.926            0.135  # HW
     319     107     1   -0.8200            9.970            3.615            2.984  # OW
     320     107     2    0.4100            9.050            3.285            2.599  # HW
     321     107     2    0.4100            9.944            4.610            3.328  # HW
     322     108     1   -0.8200           17.701            3.440            6.541  # OW
     323     108     2    0.4100           17.209            3.903            5.782  # HW
     324     108     2    0.4100           18.229            2.682            6.155  # HW
     325     109     1   -0.8200           16.810            8.882            4.269  # OW
     326     109     2    0.4100           16.670            9.400            3.417  # HW
     327     109     2    0.4100           17.301            8.014            4.015  # HW