LAMMPS data file via write_data, version 1 Mar 2016, timestep = 2000245

800 atoms
5 atom types
528 bonds
2 bond types
288 angles
2 angle types

0.0000000000000000e+00 2.0124288921607000e+01 xlo xhi
0.0000000000000000e+00 2.0124288921607000e+01 ylo yhi
0.0000000000000000e+00 2.0124288921607000e+01 zlo zhi

Masses

1 16
2 1.008
3 16
4 1.008
5 35.45

Pair Coeffs # lj/cut/coul/long

1 0.155425 3.16549
2 0 0
3 0.09861 3.11851
4 4.05e-05 0
5 0.1 4.4

Angle Coeffs # harmonic

1 37.95 113.24
2 38.7434 111.727

Atoms # full

302 101 2 4.0999999999999998e-01 6.8137731153056160e+00 9.0120543660167662e+00 1.0281181181194794e+00 0 0 0
92 31 2 4.0999999999999998e-01 8.8894034584330619e+00 1.3769878065344496e+00 6.7292701817237299e-01 1 -1 0
751 248 4 4.4000000000000000e-01 2.4151284213739377e+00 7.6206366628323643e+00 6.5631812923158217e-01 0 -1 0
320 107 2 4.0999999999999998e-01 9.0501660952849399e+00 3.2853003579805788e+00 2.5990410228960346e+00 0 1 1
382 128 1 -8.1999999999999995e-01 3.6787367675076692e+00 4.3732057834149032e+00 2.5802273573332828e+00 1 1 0
321 107 2 4.0999999999999998e-01 9.9443931129954546e+00 4.6096517345017931e+00 3.3283127328447355e+00 0 1 1
606 202 2 4.0999999999999998e-01 6.7226059850758348e+00 4.9413391914674429e+00 2.2652996703616992e+00 0 0 1
246 82 2 4.0999999999999998e-01 8.8425555114230858e-01 1.6959784541241878e+00 3.4199051918504092e-01 1 1 2
91 31 1 -8.1999999999999995e-01 8.5818715100671010e+00 1.6173861785977508e+00 1.6562073964090356e+00 1 -1 0
511 171 1 -8.1999999999999995e-01 5.4049498632501010e+00 9.7927768967327715e+00 7.6908487246416501e-01 0 -1 1
712 238 1 -8.1999999999999995e-01 6.1141445387864799e+00 2.4303692895452684e+00 3.1345555030384364e+00 -1 0 0
306 102 2 4.0999999999999998e-01 2.0377940800769231e-01 5.1543374972340281e+00 1.7176821836405493e-01 0 0 0
384 128 2 4.0999999999999998e-01 3.2425672011935975e+00 5.1259412358683356e+00 2.1182633954105330e+00 1 1 0
604 202 1 -8.1999999999999995e-01 7.2579674862640822e+00 4.3462667498720569e+00 1.6052395971084352e+00 0 0 1
196 66 1 -8.1999999999999995e-01 5.8674813600327962e+00 5.7095145194237089e+00 3.4656045110819540e+00 0 0 1
605 202 2 4.0999999999999998e-01 7.2929499717460207e+00 4.9028722630199733e+00 7.7583689053487503e-01 0 0 1
303 101 2 4.0999999999999998e-01 8.2287602425522923e+00 8.4166235057885324e+00 1.8616265446889819e+00 0 0 0
479 160 2 4.0999999999999998e-01 5.4576799927511139e+00 7.6967630618922822e-01 3.6191434159749729e+00 -2 0 1
737 245 3 -3.2000000000000001e-01 3.0658585381697834e+00 2.0370098425789540e+00 2.7343373947990703e+00 0 0 0
740 245 4 4.4000000000000000e-01 2.1704655122913130e+00 1.9526305556403916e+00 2.0840311154606681e+00 0 0 0
93 31 2 4.0999999999999998e-01 7.7209850546089855e+00 1.1225655872584439e+00 1.9563415533077380e+00 1 -1 0
787 259 5 -1.0000000000000000e+00 9.1950340983983470e+00 9.4746403836776150e+00 3.5360729761084606e+00 1 -1 2
788 260 5 -1.0000000000000000e+00 1.2644128744061423e+00 6.9329102120446162e+00 2.0116723402832202e+00 0 0 2
245 82 2 4.0999999999999998e-01 1.2341983289301922e-01 2.0361061254790069e+00 1.8207664926447407e+00 1 1 2
244 82 1 -8.1999999999999995e-01 9.9693014166381477e-01 2.0800488647937216e+00 1.3014869312549879e+00 1 1 2
301 101 1 -8.1999999999999995e-01 7.6511283092132034e+00 8.3780367500531661e+00 9.8311760430436479e-01 0 0 0
383 128 2 4.0999999999999998e-01 4.5159868516014061e+00 4.8677072671626576e+00 2.9234338646783327e+00 1 1 0
713 238 2 4.0999999999999998e-01 6.4486024795117389e+00 2.8596770854035625e+00 2.2700222576079936e+00 -1 0 0
41 14 2 4.0999999999999998e-01 7.3422099922403392e+00 2.7039952528312523e+00 7.7678878442150809e-02 1 -1 2
738 245 4 4.4000000000000000e-01 3.4877215543034299e+00 3.0241953278956828e+00 2.6920386544048593e+00 0 0 0
319 107 1 -8.1999999999999995e-01 9.9704870673057329e+00 3.6146793173679392e+00 2.9843300539837836e+00 0 1 1
198 66 2 4.0999999999999998e-01 5.4052078870997180e+00 6.5158029470857972e+00 3.9175755405329085e+00 0 0 1
438 146 2 4.0999999999999998e-01 3.3504865535282174e-01 5.5266089943037118e+00 3.9076744633831106e+00 1 0 -1
739 245 4 4.4000000000000000e-01 2.8137440597582599e+00 1.7753093985678299e+00 3.6461417604343760e+00 0 0 0
513 171 2 4.0999999999999998e-01 4.5223931948798040e+00 9.9087329823072618e+00 2.6464576852220967e-01 0 -1 1
714 238 2 4.0999999999999998e-01 6.3477731564337025e+00 3.0466644011050743e+00 3.9176308144092693e+00 -1 0 0
471 157 2 4.0999999999999998e-01 7.2707150623693728e+00 6.8253122422637285e+00 1.7950982860296380e-01 0 -1 1
111 37 2 4.0999999999999998e-01 5.4198551770197785e+00 8.6720929361991548e+00 5.2213318139625908e+00 -1 0 -1
537 179 2 4.0999999999999998e-01 9.3487220319350595e+00 9.8584609007953592e+00 7.9887565719328313e+00 -1 0 1
39 13 2 4.0999999999999998e-01 2.1362767820199222e+00 9.9223317571475427e+00 6.2534592197282413e+00 0 0 -1
437 146 2 4.0999999999999998e-01 4.6716124746577131e-01 4.2940264523733678e+00 4.7741597115234171e+00 1 0 -1
665 222 2 4.0999999999999998e-01 5.8745885437952268e+00 6.8872139019511751e+00 6.1295077722217810e+00 0 0 -1
636 212 2 4.0999999999999998e-01 1.0022761833481795e+01 8.0879337937792855e+00 6.6876910567244297e+00 -1 1 0
635 212 2 4.0999999999999998e-01 9.5580803237171139e+00 7.7408742075130670e+00 5.0632883731646556e+00 -1 1 0
483 161 2 4.0999999999999998e-01 7.9962592785859856e+00 6.2409497041533033e+00 6.6738791554552499e+00 1 0 0
248 83 2 4.0999999999999998e-01 4.6899373369995372e+00 4.0018408966792434e+00 7.4984683343040182e+00 0 0 0
249 83 2 4.0999999999999998e-01 3.8001549627647320e+00 3.3692154668584862e+00 6.2528848302062183e+00 0 0 0
800 272 5 -1.0000000000000000e+00 2.4468995829629265e+00 1.6349271677037627e+00 5.7881896212835038e+00 -1 -1 0
634 212 1 -8.1999999999999995e-01 9.7145195236010426e+00 7.3507478094947505e+00 6.0349599022312725e+00 -1 1 0
54 18 2 4.0999999999999998e-01 8.5808667880025418e+00 1.9457672280155847e+00 7.6399281179644101e+00 0 -1 -1
558 186 2 4.0999999999999998e-01 6.1556415320352915e+00 4.0501241741044085e+00 5.7460056264156876e+00 0 0 0
247 83 1 -8.1999999999999995e-01 4.6759156137057047e+00 3.9140772693959360e+00 6.4900213564432017e+00 0 0 0
110 37 2 4.0999999999999998e-01 7.0380100144068791e+00 8.9795709467043636e+00 5.2495249566002951e+00 -1 0 -1
52 18 1 -8.1999999999999995e-01 8.3923210265498209e+00 2.9663322743240537e+00 7.8005199361912743e+00 0 -1 -1
622 208 1 -8.1999999999999995e-01 1.0093306461074558e+00 8.9530200791657339e+00 4.7882564662172644e+00 0 -1 0
690 230 2 4.0999999999999998e-01 3.1684528379194993e-01 5.9587070070345280e+00 6.4171478768997163e+00 2 2 0
556 186 1 -8.1999999999999995e-01 7.0205147176832305e+00 3.8966130836086208e+00 5.2093517372539306e+00 0 0 0
481 161 1 -8.1999999999999995e-01 7.0460693724723091e+00 6.5020774347675196e+00 6.9352073929819111e+00 1 0 0
138 46 2 4.0999999999999998e-01 8.7098046740659356e+00 1.4363583295185142e-01 6.5942540375794687e+00 0 0 1
664 222 1 -8.1999999999999995e-01 4.9859854091882152e+00 7.1406074101841224e+00 5.5767222826439120e+00 0 0 -1
293 98 2 4.0999999999999998e-01 2.7432329482792384e-01 1.4970075446539388e+00 5.8145514051258660e+00 2 3 1
623 208 2 4.0999999999999998e-01 7.9084015881574654e-02 8.8735321435153942e+00 5.2423341996962778e+00 0 -1 0
557 186 2 4.0999999999999998e-01 7.6992853517233746e+00 3.5043325175123439e+00 5.9205735132475521e+00 0 0 0
666 222 2 4.0999999999999998e-01 4.3376353270903483e+00 6.4669255452149326e+00 6.0152759832273981e+00 0 0 -1
688 230 1 -8.1999999999999995e-01 6.2607132653574205e-01 6.4020544528786232e+00 7.3129691937373096e+00 2 2 0
436 146 1 -8.1999999999999995e-01 3.1055595313825052e-01 5.2916145065637412e+00 4.9112028881585132e+00 1 0 -1
146 49 2 4.0999999999999998e-01 2.4286814810218713e+00 6.1144555574441988e+00 7.6842935344056178e+00 2 2 0
109 37 1 -8.1999999999999995e-01 6.0945114428011955e+00 9.4636909124335649e+00 5.2346518652499547e+00 -1 0 -1
53 18 2 4.0999999999999998e-01 9.1502737160667404e+00 3.6310065164585912e+00 7.5191784757093032e+00 0 -1 -1
37 13 1 -8.1999999999999995e-01 2.5528388913215454e+00 9.8727656826446051e+00 7.1420198676158302e+00 0 0 -1
480 160 2 4.0999999999999998e-01 4.0346453494943164e+00 2.3100100710602542e-01 4.4118350479090811e+00 -2 0 1
136 46 1 -8.1999999999999995e-01 8.4874429353015692e+00 2.4632856567693553e-01 7.5970643655352497e+00 0 0 1
776 254 4 4.4000000000000000e-01 3.6788048216375850e+00 9.1218996383135167e+00 7.8161012554566751e+00 -1 0 0
540 180 2 4.0999999999999998e-01 1.7110986509937418e+00 2.0505907454527872e+00 7.8488819703581987e+00 1 1 0
482 161 2 4.0999999999999998e-01 6.7656116225775893e+00 6.3809214377890120e+00 7.9382646670372088e+00 1 0 0
38 13 2 4.0999999999999998e-01 1.7593734760729605e+00 9.9044473211519790e+00 7.8252384473519081e+00 0 0 -1
624 208 2 4.0999999999999998e-01 1.2122400263440367e+00 8.1315080235203450e+00 4.2210284045891768e+00 0 -1 0
197 66 2 4.0999999999999998e-01 6.5744754246469252e+00 5.3657149119498531e+00 4.1345965725453429e+00 0 0 1
145 49 1 -8.1999999999999995e-01 3.3406213909900440e+00 6.3241129847471269e+00 8.0484973594885361e+00 2 2 0
677 226 2 4.0999999999999998e-01 2.7205450816898857e-01 6.9148655780178796e+00 1.1258251385166590e+01 3 0 0
142 48 1 -8.1999999999999995e-01 3.2236269970102196e+00 5.6635400468588397e+00 1.1883469915670595e+01 -1 -1 0
258 86 2 4.0999999999999998e-01 4.8090612304406246e+00 1.7122943431595750e+00 1.0084088766988135e+01 0 0 1
539 180 2 4.0999999999999998e-01 2.3259966919614152e+00 3.1338062776949309e+00 8.9492315080692144e+00 1 1 0
692 231 2 4.0999999999999998e-01 9.9138677644623456e+00 4.3593511063383819e+00 1.0719023207400511e+01 1 1 0
89 30 2 4.0999999999999998e-01 6.5129037846523481e+00 7.3243982247981778e+00 1.0371220137919138e+01 -1 0 0
613 205 1 -8.1999999999999995e-01 3.6789752147211927e+00 4.0809394834182129e+00 9.5753759641031611e+00 0 0 0
656 219 2 4.0999999999999998e-01 6.8901302507404303e+00 3.6135627901556377e+00 1.0546365468856587e+01 1 1 1
256 86 1 -8.1999999999999995e-01 5.0337052780829499e+00 7.6961259163494189e-01 1.0466045834543969e+01 0 0 1
775 254 4 4.4000000000000000e-01 4.1450180343986274e+00 7.6851302156757475e+00 8.2882482524336254e+00 -1 0 0
147 49 2 4.0999999999999998e-01 3.4929837680756797e+00 5.4932076726565899e+00 8.6914485766776437e+00 2 2 0
74 25 2 4.0999999999999998e-01 3.8936800951412240e+00 1.1800941934651326e+00 1.1700136530748029e+01 0 1 1
227 76 2 4.0999999999999998e-01 8.1900600634718241e+00 9.7570064261423202e+00 9.9388923554881590e+00 0 -2 -2
226 76 1 -8.1999999999999995e-01 8.2247664108117036e+00 9.6855351098837907e+00 8.9923125476658861e+00 0 -2 -2
538 180 1 -8.1999999999999995e-01 1.5335450488642279e+00 2.4604314639039502e+00 8.8120747250363358e+00 1 1 0
773 254 3 -3.2000000000000001e-01 4.3698747495536177e+00 8.6479406145094693e+00 8.3731385271141097e+00 -1 0 0
684 228 2 4.0999999999999998e-01 2.9298625833755549e+00 8.6796199327736527e+00 1.1550272260981387e+01 2 0 1
756 249 4 4.4000000000000000e-01 1.9435612143825270e-01 2.9590631333840225e+00 1.1525600538071876e+01 1 1 -1
682 228 1 -8.1999999999999995e-01 3.1936156902069746e+00 9.0407283478772342e+00 1.0641254036720840e+01 2 0 1
676 226 1 -8.1999999999999995e-01 6.6945453619112172e-01 6.0154760897337942e+00 1.1001332505310041e+01 3 0 0
88 30 1 -8.1999999999999995e-01 6.1297022425304597e+00 6.6142129281385884e+00 9.7575626318234612e+00 -1 0 0
774 254 4 4.4000000000000000e-01 4.1331550177852252e+00 8.8836405315264191e+00 9.3565978251568094e+00 -1 0 0
678 226 2 4.0999999999999998e-01 8.4131552779430163e-01 5.9080885520072508e+00 1.0025316769195774e+01 3 0 0
615 205 2 4.0999999999999998e-01 4.7327919168708057e+00 3.9456889138642617e+00 9.3880257551210438e+00 0 0 0
655 219 1 -8.1999999999999995e-01 6.3798866858680414e+00 3.5663314869071421e+00 9.6682328270392173e+00 1 1 1
614 205 2 4.0999999999999998e-01 3.5346499325872456e+00 4.5239155295004361e+00 1.0557514856414979e+01 0 0 0
754 249 4 4.4000000000000000e-01 4.7991622395284833e-01 2.3980301149841243e+00 9.9623258204793519e+00 1 1 -1
182 61 2 4.0999999999999998e-01 8.7105550719818563e+00 9.6267509297119602e+00 1.1647708140128625e+01 1 0 -2
670 224 1 -8.1999999999999995e-01 6.3223039725485275e-01 1.0007124001169355e+01 9.0775664631442403e+00 0 -1 0
143 48 2 4.0999999999999998e-01 2.2752161093994130e+00 5.9585176589973523e+00 1.1547905637181715e+01 -1 -1 0
90 30 2 4.0999999999999998e-01 6.3652263669926024e+00 5.6361521925380469e+00 1.0009239491932821e+01 -1 0 0
657 219 2 4.0999999999999998e-01 7.0976135914271410e+00 3.3446239588694917e+00 8.9443351905193715e+00 1 1 1
181 61 1 -8.1999999999999995e-01 7.7106685504472923e+00 9.6314163555947481e+00 1.1682370399359197e+01 1 0 -2
671 224 2 4.0999999999999998e-01 5.0514731860276629e-01 9.8505449502884428e+00 1.0051990167894665e+01 0 -1 0
683 228 2 4.0999999999999998e-01 2.7735657859394616e+00 9.9809499533374186e+00 1.0674030413641118e+01 2 0 1
467 156 2 4.0999999999999998e-01 6.3721692547351338e+00 4.0726988237709857e-02 1.2043600488452244e+01 0 0 0
257 86 2 4.0999999999999998e-01 5.6032319412912743e+00 1.9434680587951814e-01 9.8305125587070048e+00 0 0 1
233 78 2 4.0999999999999998e-01 5.9288700039488018e-01 3.5967463633925654e+00 1.3714266114630526e+01 0 -1 -1
334 112 1 -8.1999999999999995e-01 8.1654360096736927e+00 6.3610308271042859e+00 1.4811803517464053e+01 1 -1 0
602 201 2 4.0999999999999998e-01 3.9640911730623039e+00 3.9913752536988967e+00 1.4547129194397696e+01 1 0 0
731 243 4 4.4000000000000000e-01 6.4466659567328435e+00 1.8931674428348433e+00 1.5936062762942168e+01 1 1 -1
144 48 2 4.0999999999999998e-01 3.6272093000862520e+00 6.2597274555858728e+00 1.2571265447140487e+01 -1 -1 0
347 116 2 4.0999999999999998e-01 5.2075537841441488e-01 2.9511962620707535e+00 1.5598228512450694e+01 0 0 1
335 112 2 4.0999999999999998e-01 8.0129990780219096e+00 5.5510523885476601e+00 1.4209714672668337e+01 1 -1 0
719 240 2 4.0999999999999998e-01 3.7330547987255129e+00 8.0213581215128844e+00 1.3764052348112761e+01 1 1 -1
701 234 2 4.0999999999999998e-01 7.2745033324788757e+00 3.1081163709979140e+00 1.4233639992099617e+01 1 -2 0
60 20 2 4.0999999999999998e-01 7.2234875412875574e+00 7.5206362996881735e+00 1.4042308392910192e+01 1 0 -2
58 20 1 -8.1999999999999995e-01 6.6058923299819323e+00 8.1537297024739548e+00 1.3471609958426043e+01 1 0 -2
348 116 2 4.0999999999999998e-01 1.8319110608322207e+00 4.0136144362682726e+00 1.5833473882348231e+01 0 0 1
720 240 2 4.0999999999999998e-01 3.9017492637487496e+00 7.0788251118580838e+00 1.5216450917127178e+01 1 1 -1
59 20 2 4.0999999999999998e-01 6.4772338142928305e+00 9.0348812919170651e+00 1.4052757002189763e+01 1 0 -2
234 78 2 4.0999999999999998e-01 6.4322424465257744e-01 4.7723030591209525e+00 1.2396453350631129e+01 0 -1 -1
183 61 2 4.0999999999999998e-01 7.1979611207040417e+00 9.0769176493904808e+00 1.2392883549016531e+01 1 0 -2
612 204 2 4.0999999999999998e-01 1.6483184750178577e+00 9.7462741152101877e+00 1.4722577035725617e+01 1 1 0
232 78 1 -8.1999999999999995e-01 4.7018573007525583e-01 3.7389529104193846e+00 1.2702591237133541e+01 0 -1 -1
346 116 1 -8.1999999999999995e-01 8.8138327470490985e-01 3.9084028015161754e+00 1.5442886049588138e+01 0 0 1
700 234 1 -8.1999999999999995e-01 6.5801782428503159e+00 2.6586091188615071e+00 1.4811105734010171e+01 1 -2 0
649 217 1 -8.1999999999999995e-01 1.0061456306189991e+00 6.5294502207221798e+00 1.5759772935566287e+01 0 1 0
786 258 5 -1.0000000000000000e+00 8.0520340647744799e+00 3.9963112521574553e+00 1.2253836981663946e+01 0 0 0
369 123 2 4.0999999999999998e-01 8.8687158419006940e-01 1.1587216883558771e+00 1.5314975380351578e+01 0 3 0
651 217 2 4.0999999999999998e-01 1.7745419988131079e+00 6.7809051563518743e+00 1.5172322423579487e+01 0 1 0
336 112 2 4.0999999999999998e-01 8.8672374339697662e+00 6.9037731834471492e+00 1.4296697821464567e+01 1 -1 0
702 234 2 4.0999999999999998e-01 5.7030849202531346e+00 2.8288564002868646e+00 1.4227995263043967e+01 1 -2 0
484 162 1 -8.1999999999999995e-01 8.2591340991416811e+00 6.7302958858861728e-01 1.3610989090008308e+01 0 1 0
601 201 1 -8.1999999999999995e-01 4.1392229304682635e+00 3.5019573476996513e+00 1.3686614503696223e+01 1 0 0
718 240 1 -8.1999999999999995e-01 3.5685014616462118e+00 7.1369747097030034e+00 1.4254217886570535e+01 1 1 -1
486 162 2 4.0999999999999998e-01 8.1831888031524720e+00 1.5447096655981050e+00 1.3045010004444869e+01 0 1 0
650 217 2 4.0999999999999998e-01 9.4189057922364339e-01 5.4750774607535568e+00 1.5839369979135242e+01 0 1 0
611 204 2 4.0999999999999998e-01 1.4544499938284656e+00 9.5563799785441095e+00 1.3065525264904341e+01 1 1 0
610 204 1 -8.1999999999999995e-01 2.1317554268909107e+00 9.5088753295426311e+00 1.3837782050878426e+01 1 1 0
75 25 2 4.0999999999999998e-01 3.3550102959944903e+00 2.1368639321126626e+00 1.3017460045715172e+01 0 1 1
603 201 2 4.0999999999999998e-01 4.0753573257145908e+00 4.1317690485267313e+00 1.2847322623659869e+01 1 0 0
509 170 2 4.0999999999999998e-01 9.8633548819566403e+00 7.4817782740584274e-02 1.4434264397789738e+01 0 1 1
73 25 1 -8.1999999999999995e-01 3.0655800578315389e+00 1.4493116801731363e+00 1.2267688692645983e+01 0 1 1
83 28 2 4.0999999999999998e-01 9.9252790479201209e+00 3.7356590798557341e+00 1.3795990616907558e+01 1 1 -1
288 96 2 4.0999999999999998e-01 6.0627687875293486e+00 6.1849263719951670e+00 1.5838348526238992e+01 1 0 0
697 233 1 -8.1999999999999995e-01 3.3934343198329184e+00 4.3376660411934411e+00 1.6525964009960781e+01 0 -1 1
113 38 2 4.0999999999999998e-01 5.1510500486654136e+00 2.8788697736674607e+00 1.8986952419721284e+01 0 -1 0
309 103 2 4.0999999999999998e-01 9.1363182442405275e+00 3.6400189772668934e-01 1.7560268270618245e+01 -1 1 0
469 157 1 -8.1999999999999995e-01 7.2658758364518867e+00 6.0546460982209593e+00 1.9663482928487980e+01 0 -1 0
699 233 2 4.0999999999999998e-01 3.6954891695649938e+00 4.0042280998992910e+00 1.7444651005140614e+01 0 -1 1
752 248 4 4.4000000000000000e-01 2.2889154829826288e+00 7.9780743218642414e+00 1.9150642169998708e+01 0 -1 -1
488 163 2 4.0999999999999998e-01 6.7539841973860537e-01 3.0540711232869051e+00 1.8800212728515852e+01 1 2 -2
108 36 2 4.0999999999999998e-01 6.3335611352035244e+00 8.3873769498867148e+00 1.8892580933686862e+01 1 0 0
40 14 1 -8.1999999999999995e-01 6.9511518775403163e+00 2.2209088329392310e+00 1.9352765116286893e+01 1 -1 1
489 163 2 4.0999999999999998e-01 6.4598946725261852e-01 1.9337331963485918e+00 1.7555487733239698e+01 1 2 -2
585 195 2 4.0999999999999998e-01 9.5580727907565564e+00 6.1763713239215070e+00 1.7447688957903946e+01 -1 0 -1
106 36 1 -8.1999999999999995e-01 5.5960224170625583e+00 8.3246244014253143e+00 1.8226843709985353e+01 1 0 0
201 67 2 4.0999999999999998e-01 4.2236211794697001e+00 4.9777974120709807e+00 1.9517993921531968e+01 0 1 0
315 105 2 4.0999999999999998e-01 2.6079148444359466e+00 9.1171073383180390e-01 1.8073480805235384e+01 0 -1 -2
307 103 1 -8.1999999999999995e-01 8.2535538925374716e+00 1.0136205430069654e-01 1.7047501824208538e+01 -1 1 0
470 157 2 4.0999999999999998e-01 7.6840677771863986e+00 6.3607759139237094e+00 1.8794183968127165e+01 0 -1 0
42 14 2 4.0999999999999998e-01 7.4000624998755180e+00 2.5024326117258839e+00 1.8470462349791848e+01 1 -1 1
487 163 1 -8.1999999999999995e-01 1.0358647725112948e+00 2.1532920479593147e+00 1.8467771720361061e+01 1 2 -2
527 176 2 4.0999999999999998e-01 6.6118301901290053e+00 5.6866704365759535e-01 1.9911515402899600e+01 0 -1 1
187 63 1 -8.1999999999999995e-01 1.2642759067124407e+00 8.0581633144746494e+00 1.8144321225820523e+01 0 1 -2
597 199 2 4.0999999999999998e-01 8.2777215894577729e+00 4.3494525970782352e+00 1.7001422538826315e+01 -1 1 0
732 243 4 4.4000000000000000e-01 7.0389949796708553e+00 6.7177208738321414e-01 1.6946496735557993e+01 1 1 -1
188 63 2 4.0999999999999998e-01 2.9298254959429987e-01 7.6608276717964428e+00 1.8364739483055352e+01 0 1 -2
200 67 2 4.0999999999999998e-01 5.5772114693206056e+00 5.8244460170034733e+00 1.9691830484759379e+01 0 1 0
112 38 1 -8.1999999999999995e-01 4.2443697083333713e+00 3.2603529027906379e+00 1.9001950910674399e+01 0 -1 0
729 243 3 -3.2000000000000001e-01 6.2274263209687692e+00 1.3345786673917821e+00 1.6788855883673197e+01 1 1 -1
750 248 4 4.4000000000000000e-01 3.5794835919865076e+00 7.1825710752682204e+00 1.9785006370165291e+01 0 -1 -1
107 36 2 4.0999999999999998e-01 5.5216676885267830e+00 9.2885043888399821e+00 1.7844980078077420e+01 1 0 0
313 105 1 -8.1999999999999995e-01 3.5673469627938976e+00 6.6903982630923031e-01 1.8188649174073834e+01 0 -1 -2
730 243 4 4.4000000000000000e-01 5.6015962138448865e+00 5.4926023113305888e-01 1.6475601067790620e+01 1 1 -1
189 63 2 4.0999999999999998e-01 1.4396200472195686e+00 7.7068155307129809e+00 1.7175944462232874e+01 0 1 -2
114 38 2 4.0999999999999998e-01 3.6500872064892529e+00 2.4130563949327093e+00 1.8963763675440394e+01 0 -1 0
595 199 1 -8.1999999999999995e-01 8.3123764741836830e+00 3.3904198774457619e+00 1.7238847388063405e+01 -1 1 0
286 96 1 -8.1999999999999995e-01 5.2215384963363354e+00 6.3864084643441235e+00 1.6337564589116390e+01 1 0 0
698 233 2 4.0999999999999998e-01 3.9943280353804602e+00 5.1885223319841520e+00 1.6445403140535984e+01 0 -1 1
583 195 1 -8.1999999999999995e-01 8.6189007772285997e+00 6.5224821910149489e+00 1.7386497970346031e+01 -1 0 -1
287 96 2 4.0999999999999998e-01 5.3011138317331765e+00 7.0681105399853790e+00 1.7065864186079985e+01 1 0 0
199 67 1 -8.1999999999999995e-01 4.5831868877352990e+00 5.8859132901911462e+00 1.9835126920397567e+01 0 1 0
596 199 2 4.0999999999999998e-01 9.2440099101013207e+00 3.1331051677474782e+00 1.7034678729607542e+01 -1 1 0
717 239 2 4.0999999999999998e-01 9.8357699928007118e+00 8.5031234020631992e+00 1.8328069496196846e+01 -1 0 -1
584 195 2 4.0999999999999998e-01 8.4743516486468771e+00 6.4412719650767833e+00 1.6341358187886968e+01 -1 0 -1
304 102 1 -8.1999999999999995e-01 1.9539576987597493e-02 4.5468967668013480e+00 1.9489286084008928e+01 0 0 -1
749 248 3 -3.2000000000000001e-01 2.9571857456967670e+00 7.9392650782726077e+00 1.9959988437267125e+01 0 -1 -1
716 239 2 4.0999999999999998e-01 1.0005808851676230e+01 9.3942514988042269e+00 1.9627690930102812e+01 -1 0 -1
131 44 2 4.0999999999999998e-01 6.1373371749321128e+00 1.5370257242338649e+01 1.9482780364456043e+00 1 0 1
163 55 1 -8.1999999999999995e-01 9.5261519487101509e+00 1.0656240126258473e+01 6.6054158009157327e-01 -1 -1 2
18 6 2 4.0999999999999998e-01 5.5514121556331357e+00 1.0482549795108790e+01 4.0230244450575903e+00 2 0 2
165 55 2 4.0999999999999998e-01 9.6193886349846469e+00 1.0335772284465692e+01 1.6266330109166016e+00 -1 -1 2
407 136 2 4.0999999999999998e-01 9.3749184966673784e+00 1.4489105543521939e+01 4.4585675489806981e-01 0 1 0
725 242 3 -3.2000000000000001e-01 7.3424803162479488e+00 1.7935923152234359e+01 1.2108012002472310e+00 -1 -1 0
727 242 4 4.4000000000000000e-01 6.7849285898239646e+00 1.8733415966976882e+01 7.4774807364648377e-01 -1 -1 0
132 44 2 4.0999999999999998e-01 5.4870642908115839e+00 1.5305704221910137e+01 4.9151229054961493e-01 1 0 1
175 59 1 -8.1999999999999995e-01 2.9344583727806111e+00 1.2317551950384484e+01 3.0375490562671841e+00 0 -2 0
345 115 2 4.0999999999999998e-01 3.3165399083847991e+00 1.5526908890859621e+01 2.8652029350188095e+00 0 1 0
357 119 2 4.0999999999999998e-01 3.1285062707317668e-01 1.8299184901826056e+01 4.0070964657267105e-01 0 0 -2
565 189 1 -8.1999999999999995e-01 1.8656045530152257e+00 1.2585611522679699e+01 6.4722302256348774e-01 0 -1 -1
567 189 2 4.0999999999999998e-01 2.1354931626001812e+00 1.2475570913102272e+01 1.6350407488517544e+00 0 -1 -1
130 44 1 -8.1999999999999995e-01 6.3587710371901238e+00 1.5592502800479210e+01 1.0122509657883929e+00 1 0 1
543 181 2 4.0999999999999998e-01 8.4341408708580836e+00 1.2413341938021405e+01 2.5021904897385649e+00 0 0 0
434 145 2 4.0999999999999998e-01 2.7200920160754167e+00 1.6989833726354060e+01 1.1236198466953229e+00 0 0 0
512 171 2 4.0999999999999998e-01 5.4297151069112131e+00 1.0190294215614783e+01 1.7177971871664675e+00 0 -1 1
435 145 2 4.0999999999999998e-01 2.5015239406349266e+00 1.7222488519806028e+01 2.8212134486190643e+00 0 0 0
17 6 2 4.0999999999999998e-01 6.1516096043511945e+00 1.1754659050478638e+01 3.1418672881659182e+00 2 0 2
728 242 4 4.4000000000000000e-01 8.2250338003680774e+00 1.7881511605372975e+01 7.4585450391644648e-01 -1 -1 0
433 145 1 -8.1999999999999995e-01 2.5976330092032534e+00 1.6538684718663120e+01 2.0665031610069846e+00 0 0 0
16 6 1 -8.1999999999999995e-01 5.3716155532102601e+00 1.1104214523277465e+01 3.1718643433817690e+00 2 0 2
177 59 2 4.0999999999999998e-01 3.2255019779146474e+00 1.3290050830516014e+01 2.9328191021398760e+00 0 -2 0
176 59 2 4.0999999999999998e-01 3.7873486595847590e+00 1.1695964735100427e+01 3.1573928900717378e+00 0 -2 0
420 140 2 4.0999999999999998e-01 2.4455160874697637e-01 1.4228543630741271e+01 7.3739929301993867e-01 0 3 1
333 111 2 4.0999999999999998e-01 1.3425295222661984e+00 1.1739739627062967e+01 3.4244194949620987e+00 1 -1 1
541 181 1 -8.1999999999999995e-01 7.6795332157329153e+00 1.2591142787586652e+01 3.1308159104074149e+00 0 0 0
478 160 1 -8.1999999999999995e-01 4.8643176576322631e+00 2.0038062005283283e+01 3.8757893702351933e+00 -2 -1 1
726 242 4 4.4000000000000000e-01 6.8552848243092166e+00 1.7034963122584411e+01 1.0499113966576274e+00 -1 -1 0
343 115 1 -8.1999999999999995e-01 3.7492200028621747e+00 1.4924198228760272e+01 3.6221164254260665e+00 0 1 0
344 115 2 4.0999999999999998e-01 4.8002381130859400e+00 1.5040875629944697e+01 3.7084568766309456e+00 0 1 0
331 111 1 -8.1999999999999995e-01 3.9381335780103510e-01 1.1485384455648553e+01 3.7518193809795308e+00 1 -1 1
703 235 1 -8.1999999999999995e-01 6.3150411608329584e+00 1.5679291653852879e+01 3.7001355787105292e+00 -1 0 0
526 176 1 -8.1999999999999995e-01 6.2539278135108329e+00 1.9854951799682937e+01 2.9022460162595332e-01 0 -2 2
406 136 1 -8.1999999999999995e-01 1.0055502282579472e+01 1.4326280249737589e+01 1.1908345732371859e+00 0 1 0
566 189 2 4.0999999999999998e-01 2.4924631062782545e+00 1.1928987041782005e+01 6.1766188317773099e-02 0 -1 -1
123 41 2 4.0999999999999998e-01 7.4253685637939055e+00 1.4647722920759728e+01 1.2004305925061386e-01 -1 -2 1
266 89 2 4.0999999999999998e-01 6.1682884463868364e+00 1.0353068209993582e+01 6.7820808588061912e+00 0 -1 1
555 185 2 4.0999999999999998e-01 2.1733315571789351e+00 1.9523606138191390e+01 6.8105967557063716e+00 0 0 -1
272 91 2 4.0999999999999998e-01 1.2266138353903315e+00 1.4798532356750034e+01 5.5177236846876756e+00 -1 0 1
553 185 1 -8.1999999999999995e-01 2.0099229289644209e+00 1.8499554808068993e+01 6.6992532323655958e+00 0 0 -1
278 93 2 4.0999999999999998e-01 2.8315975315148637e-02 1.3233254623241201e+01 4.0996885307475610e+00 1 -1 0
707 236 2 4.0999999999999998e-01 8.6412183268239779e+00 1.1100773560738656e+01 4.7994813748350635e+00 -1 0 0
647 216 2 4.0999999999999998e-01 7.2452854844285230e+00 1.8780045834788858e+01 4.9239114502431303e+00 0 -1 -1
648 216 2 4.0999999999999998e-01 5.7304854476884985e+00 1.8814161114945399e+01 4.6730032199445928e+00 0 -1 -1
332 111 2 4.0999999999999998e-01 4.6412958451304032e-01 1.0554011170505914e+01 4.0696976326964034e+00 1 -1 1
536 179 2 4.0999999999999998e-01 9.6680005303312573e+00 1.0553203389803562e+01 6.5693007376840340e+00 -1 0 1
706 236 1 -8.1999999999999995e-01 8.6423217240180854e+00 1.1581531251465755e+01 5.6948145140952739e+00 -1 0 0
218 73 2 4.0999999999999998e-01 2.3942484267026795e-01 1.7535903495303579e+01 4.2306958565474018e+00 2 0 0
705 235 2 4.0999999999999998e-01 7.0430832764740572e+00 1.5246901674504937e+01 4.3187436564790103e+00 -1 0 0
354 118 2 4.0999999999999998e-01 2.9797676172413179e+00 1.1950588709427040e+01 7.4616458393459446e+00 1 0 1
629 210 2 4.0999999999999998e-01 7.2773248429675048e+00 1.6318534623750626e+01 7.3597333888528604e+00 0 1 0
273 91 2 4.0999999999999998e-01 2.7968494222149358e+00 1.4923508835441091e+01 5.2465273860654724e+00 -1 0 1
708 236 2 4.0999999999999998e-01 8.9313591421046645e+00 1.2561701366750670e+01 5.7969624107293694e+00 -1 0 0
630 210 2 4.0999999999999998e-01 6.3602710458260479e+00 1.7298827657211408e+01 6.3799050037411877e+00 0 1 0
554 185 2 4.0999999999999998e-01 2.7507928254452518e+00 1.7935403675696467e+01 7.2154945272939148e+00 0 0 -1
217 73 1 -8.1999999999999995e-01 8.4483286543872049e-01 1.8342294703303622e+01 4.1862770965027236e+00 2 0 0
628 210 1 -8.1999999999999995e-01 6.2740817359932812e+00 1.6584487233916310e+01 7.1504009474823187e+00 0 1 0
267 89 2 4.0999999999999998e-01 7.4451936874257756e+00 1.1371683856315011e+01 6.7182132992316781e+00 0 -1 1
265 89 1 -8.1999999999999995e-01 6.6560783653139124e+00 1.1072355358700086e+01 7.3111797546276245e+00 0 -1 1
790 262 5 -1.0000000000000000e+00 9.3930973116681109e+00 1.9651553139601646e+01 4.6678374891743841e+00 0 0 0
353 118 2 4.0999999999999998e-01 2.4666065954287744e+00 1.3530865833528892e+01 7.0566294299862209e+00 1 0 1
207 69 2 4.0999999999999998e-01 9.0988802584286237e+00 1.5472386474921572e+01 7.6204041589088289e+00 -1 1 1
799 271 5 -1.0000000000000000e+00 9.7190381352023270e+00 1.4491067202023858e+01 5.4327896238855873e+00 0 0 1
219 73 2 4.0999999999999998e-01 1.3320469903374201e+00 1.8463559616128279e+01 5.0888999804360004e+00 2 0 0
646 216 1 -8.1999999999999995e-01 6.4366672005966281e+00 1.8162726882544892e+01 4.9752741165576850e+00 0 -1 -1
78 26 2 4.0999999999999998e-01 4.4082387448573099e+00 1.6505352634003355e+01 7.5996265447072986e+00 -2 -2 0
271 91 1 -8.1999999999999995e-01 2.1131360051229566e+00 1.4978586765887679e+01 5.9630825733570907e+00 -1 0 1
352 118 1 -8.1999999999999995e-01 2.9246594724444828e+00 1.2916804264760778e+01 7.8131912307492772e+00 1 0 1
704 235 2 4.0999999999999998e-01 6.0899439942312119e+00 1.6564235264368076e+01 4.1997289637424204e+00 -1 0 0
497 166 2 4.0999999999999998e-01 6.1648914484116020e+00 1.2885288388200728e+01 7.7557201438619741e+00 3 1 1
542 181 2 4.0999999999999998e-01 7.9752734757633652e+00 1.2935151605057342e+01 4.0558632443276936e+00 0 0 0