LAMMPS data file. Created by Zhi (Shane) Yue from an equilibrated data via write_data, version 1 Mar 2016, timestep = 2000000

         770  atoms
         513  bonds
         258  angles

           5  atom types
           2  bond types
           2  angle types

     0.00000     19.38870 xlo xhi
     0.00000     19.38870 ylo yhi
     0.00000     19.38870 zlo zhi

Masses

       1    15.9994  # OW
       2      1.008  # HW
       3    15.9994  # OH
       4      1.008  # HO
       5      35.45  # Cl

Atoms # full

       1       1     1   -0.8200           12.555           14.027            7.725  # OW
       2       1     2    0.4100           12.068           14.517            8.432  # HW
       3       1     2    0.4100           13.269           13.357            8.095  # HW
       4       2     1   -0.8200            6.626            9.224           19.290  # OW
       5       2     2    0.4100            7.127            9.811           18.632  # HW
       6       2     2    0.4100            5.737            9.537            0.158  # HW
       7       3     1   -0.8200            1.148           10.059            6.803  # OW
       8       3     2    0.4100            1.330            9.289            7.452  # HW
       9       3     2    0.4100            1.147            9.633            5.847  # HW
      10       4     1   -0.8200           16.142           19.090           16.252  # OW
      11       4     2    0.4100           16.468           18.641           17.140  # HW
      12       4     2    0.4100           15.800            0.691           16.478  # HW
      13       5     1   -0.8200            8.851            4.821            7.096  # OW
      14       5     2    0.4100            9.213            3.930            7.437  # HW
      15       5     2    0.4100            9.642            5.567            6.963  # HW
      16       6     1   -0.8200            2.126           12.575           18.495  # OW
      17       6     2    0.4100            2.203           13.568           18.228  # HW
      18       6     2    0.4100            1.351           12.520           19.189  # HW
      19       7     1   -0.8200           13.006            1.916            6.237  # OW
      20       7     2    0.4100           13.253            0.980            5.835  # HW
      21       7     2    0.4100           12.191            2.257            5.689  # HW
      22       8     1   -0.8200            9.852           10.073           10.250  # OW
      23       8     2    0.4100           10.868           10.193           10.396  # HW
      24       8     2    0.4100            9.429           10.832           10.776  # HW
      25       9     1   -0.8200            3.561            9.893            0.461  # OW
      26       9     2    0.4100            3.828           10.856            0.540  # HW
      27       9     2    0.4100            2.866            9.815           19.106  # HW
      28      10     1   -0.8200           17.816            4.148           10.392  # OW
      29      10     2    0.4100           17.438            3.194           10.124  # HW
      30      10     2    0.4100           17.021            4.615           10.040  # HW
      31      11     1   -0.8200           17.851            7.217           15.161  # OW
      32      11     2    0.4100           18.422            7.902           14.724  # HW
      33      11     2    0.4100           17.842            6.255           14.773  # HW
      34      12     1   -0.8200            1.022           12.401            8.328  # OW
      35      12     2    0.4100           19.367           12.440            8.183  # HW
      36      12     2    0.4100            1.466           11.560            7.880  # HW
      37      13     1   -0.8200           15.428           14.089           13.302  # OW
      38      13     2    0.4100           15.069           13.654           14.179  # HW
      39      13     2    0.4100           15.536           13.383           12.584  # HW
      40      14     1   -0.8200           18.878           10.111            2.760  # OW
      41      14     2    0.4100           17.879           10.289            3.027  # HW
      42      14     2    0.4100           19.218           11.056            2.386  # HW
      43      15     1   -0.8200            7.731           11.121            7.321  # OW
      44      15     2    0.4100            7.331           11.911            6.728  # HW
      45      15     2    0.4100            6.912           10.516            7.553  # HW
      46      16     1   -0.8200           19.312           15.799            3.068  # OW
      47      16     2    0.4100            0.226           16.191            3.979  # HW
      48      16     2    0.4100            0.418           14.939            2.664  # HW
      49      17     1   -0.8200            3.586           17.869           15.766  # OW
      50      17     2    0.4100            3.905           17.293           16.536  # HW
      51      17     2    0.4100            2.658           17.476           15.550  # HW
      52      18     1   -0.8200           13.202           16.318           11.829  # OW
      53      18     2    0.4100           12.595           16.149           12.602  # HW
      54      18     2    0.4100           14.170           16.434           12.120  # HW
      55      19     1   -0.8200            1.766            4.416            5.762  # OW
      56      19     2    0.4100            1.051            3.762            6.180  # HW
      57      19     2    0.4100            2.443            3.954            5.099  # HW
      58      20     1   -0.8200            2.274            2.475           19.321  # OW
      59      20     2    0.4100            3.121            2.846           18.900  # HW
      60      20     2    0.4100            1.596            3.220           19.084  # HW
      61      21     1   -0.8200            7.224            6.426            5.613  # OW
      62      21     2    0.4100            7.840            5.601            5.976  # HW
      63      21     2    0.4100            6.321            5.954            5.396  # HW
      64      22     1   -0.8200           10.362           13.786           18.388  # OW
      65      22     2    0.4100            9.452           14.077           18.671  # HW
      66      22     2    0.4100           10.321           13.355           17.424  # HW
      67      23     1   -0.8200            8.388            5.533           13.446  # OW
      68      23     2    0.4100            8.090            6.303           14.013  # HW
      69      23     2    0.4100            9.129            5.850           12.817  # HW
      70      24     1   -0.8200           14.690            1.279            3.953  # OW
      71      24     2    0.4100           13.852            0.738            3.838  # HW
      72      24     2    0.4100           15.465            0.711            4.276  # HW
      73      25     1   -0.8200           13.238           18.555            5.220  # OW
      74      25     2    0.4100           12.254           18.417            5.240  # HW
      75      25     2    0.4100           13.622           18.096            6.094  # HW
      76      26     1   -0.8200           13.643           17.804           18.240  # OW
      77      26     2    0.4100           13.559           17.872           17.210  # HW
      78      26     2    0.4100           13.373           16.899           18.642  # HW
      79      27     1   -0.8200           10.924            0.413           11.939  # OW
      80      27     2    0.4100           10.074           19.284           11.850  # HW
      81      27     2    0.4100           10.940            1.313           11.394  # HW
      82      28     1   -0.8200           12.096            6.854           13.933  # OW
      83      28     2    0.4100           12.656            6.472           14.779  # HW
      84      28     2    0.4100           11.318            7.431           14.299  # HW
      85      29     1   -0.8200            5.185            9.479            8.722  # OW
      86      29     2    0.4100            5.870            9.068            8.160  # HW
      87      29     2    0.4100            4.307            9.025            8.517  # HW
      88      30     1   -0.8200            1.010            9.164           17.742  # OW
      89      30     2    0.4100            0.098            9.564           17.884  # HW
      90      30     2    0.4100            1.323            9.490           16.805  # HW
      91      31     1   -0.8200            8.500           16.920           17.431  # OW
      92      31     2    0.4100            7.632           17.458           17.696  # HW
      93      31     2    0.4100            8.256           15.975           17.771  # HW
      94      32     1   -0.8200           12.701           13.295           11.800  # OW
      95      32     2    0.4100           12.321           13.692           10.940  # HW
      96      32     2    0.4100           13.653           12.983           11.604  # HW
      97      33     1   -0.8200           15.731           19.264           12.222  # OW
      98      33     2    0.4100           15.199            0.613           11.818  # HW
      99      33     2    0.4100           15.172           18.839           12.992  # HW
     100      34     1   -0.8200           16.741            7.112            2.606  # OW
     101      34     2    0.4100           16.598            8.108            2.936  # HW
     102      34     2    0.4100           17.336            7.120            1.837  # HW
     103      35     1   -0.8200            4.337            6.078           11.594  # OW
     104      35     2    0.4100            4.225            5.461           10.803  # HW
     105      35     2    0.4100            3.577            6.726           11.352  # HW
     106      36     1   -0.8200            2.569           19.211            0.221  # OW
     107      36     2    0.4100            2.564            0.808            0.077  # HW
     108      36     2    0.4100            3.103           19.020            1.091  # HW
     109      37     1   -0.8200           17.399            3.180           14.967  # OW
     110      37     2    0.4100           17.443            2.195           14.622  # HW
     111      37     2    0.4100           17.978            3.793           14.366  # HW
     112      38     1   -0.8200            1.286            6.408            3.631  # OW
     113      38     2    0.4100            2.013            6.022            4.279  # HW
     114      38     2    0.4100            1.695            6.323            2.661  # HW
     115      39     1   -0.8200           19.027            0.199           18.643  # OW
     116      39     2    0.4100           19.033            1.192           18.381  # HW
     117      39     2    0.4100           19.183            0.231            0.236  # HW
     118      40     1   -0.8200           18.464           14.279           18.169  # OW
     119      40     2    0.4100           18.529           13.584           17.373  # HW
     120      40     2    0.4100           18.728           13.794           19.047  # HW
     121      41     1   -0.8200           16.938           11.839            0.350  # OW
     122      41     2    0.4100           16.888           11.098           19.058  # HW
     123      41     2    0.4100           17.883           11.816            0.755  # HW
     124      42     1   -0.8200           18.068           15.688            8.913  # OW
     125      42     2    0.4100           18.159           14.684            9.019  # HW
     126      42     2    0.4100           17.906           16.067            9.864  # HW
     127      43     1   -0.8200            5.272           15.560            4.955  # OW
     128      43     2    0.4100            4.864           16.260            4.259  # HW
     129      43     2    0.4100            4.516           14.827            4.949  # HW
     130      44     1   -0.8200           12.933            2.100            8.675  # OW
     131      44     2    0.4100           13.194            1.199            8.984  # HW
     132      44     2    0.4100           12.920            2.045            7.665  # HW
     133      45     1   -0.8200            0.780            4.902           18.148  # OW
     134      45     2    0.4100            0.178            5.184           18.860  # HW
     135      45     2    0.4100            1.478            5.704           18.219  # HW
     136      46     1   -0.8200           10.313            9.661            7.608  # OW
     137      46     2    0.4100            9.994            9.674            8.611  # HW
     138      46     2    0.4100            9.562           10.035            7.029  # HW
     139      47     1   -0.8200           13.932            8.944            1.980  # OW
     140      47     2    0.4100           13.459            8.033            1.739  # HW
     141      47     2    0.4100           13.173            9.628            2.386  # HW
     142      48     1   -0.8200           16.462           16.606           11.522  # OW
     143      48     2    0.4100           16.436           17.550           11.948  # HW
     144      48     2    0.4100           16.151           16.072           12.318  # HW
     145      49     1   -0.8200           15.956            4.133           18.795  # OW
     146      49     2    0.4100           16.155            5.026           18.389  # HW
     147      49     2    0.4100           15.627            4.277            0.347  # HW
     148      50     1   -0.8200            6.522            7.071           17.521  # OW
     149      50     2    0.4100            6.531            7.923           18.131  # HW
     150      50     2    0.4100            7.401            6.491           17.734  # HW
     151      51     1   -0.8200           15.043           17.776           14.267  # OW
     152      51     2    0.4100           14.343           17.085           14.514  # HW
     153      51     2    0.4100           15.326           18.324           15.098  # HW
     154      52     1   -0.8200           18.022           10.750           13.667  # OW
     155      52     2    0.4100           18.103           11.802           13.701  # HW
     156      52     2    0.4100           18.868           10.223           13.351  # HW
     157      53     1   -0.8200           12.873            9.377            8.107  # OW
     158      53     2    0.4100           13.045            8.365            7.983  # HW
     159      53     2    0.4100           11.850            9.517            7.727  # HW
     160      54     1   -0.8200           14.211           16.645            7.069  # OW
     161      54     2    0.4100           13.845           15.684            7.073  # HW
     162      54     2    0.4100           14.623           16.854            8.000  # HW
     163      55     1   -0.8200           15.309           12.244           11.491  # OW
     164      55     2    0.4100           15.129           12.296           10.479  # HW
     165      55     2    0.4100           15.910           11.371           11.498  # HW
     166      56     1   -0.8200            8.052           11.286           18.114  # OW
     167      56     2    0.4100            9.033           11.106           17.895  # HW
     168      56     2    0.4100            7.689           11.832           17.283  # HW
     169      57     1   -0.8200           16.274            1.533            0.402  # OW
     170      57     2    0.4100           16.332            2.392           19.219  # HW
     171      57     2    0.4100           17.198            1.384            0.985  # HW
     172      58     1   -0.8200            1.362            9.029            4.310  # OW
     173      58     2    0.4100            1.344            8.027            4.116  # HW
     174      58     2    0.4100            0.573            9.541            3.830  # HW
     175      59     1   -0.8200           18.342            6.210            4.790  # OW
     176      59     2    0.4100           19.234            6.086            4.275  # HW
     177      59     2    0.4100           17.774            6.817            4.214  # HW
     178      60     1   -0.8200           16.099            5.257            8.125  # OW
     179      60     2    0.4100           15.546            5.913            8.685  # HW
     180      60     2    0.4100           15.528            4.370            8.130  # HW
     181      61     1   -0.8200            6.388            3.329            7.676  # OW
     182      61     2    0.4100            7.049            4.088            7.360  # HW
     183      61     2    0.4100            6.625            2.927            8.607  # HW
     184      62     1   -0.8200            4.925           10.727           16.242  # OW
     185      62     2    0.4100            4.617            9.816           15.833  # HW
     186      62     2    0.4100            5.771           11.094           15.813  # HW
     187      63     1   -0.8200            2.854           16.081            1.847  # OW
     188      63     2    0.4100            2.305           16.396            0.977  # HW
     189      63     2    0.4100            2.875           15.055            1.959  # HW
     190      64     1   -0.8200            0.382           16.528           12.422  # OW
     191      64     2    0.4100           18.779           16.244           12.590  # HW
     192      64     2    0.4100            0.422           17.539           12.238  # HW
     193      65     1   -0.8200           14.020            3.414           14.721  # OW
     194      65     2    0.4100           13.365            2.616           14.620  # HW
     195      65     2    0.4100           14.774            3.019           15.314  # HW
     196      66     1   -0.8200            0.074            3.005            7.535  # OW
     197      66     2    0.4100           19.023            3.921            7.290  # HW
     198      66     2    0.4100           18.829            2.303            7.161  # HW
     199      67     1   -0.8200            4.749            3.387           18.304  # OW
     200      67     2    0.4100            4.591            4.109           17.584  # HW
     201      67     2    0.4100            5.202            2.606           17.807  # HW
     202      68     1   -0.8200           15.643           12.852            6.730  # OW
     203      68     2    0.4100           16.082           12.065            6.156  # HW
     204      68     2    0.4100           15.061           13.479            6.211  # HW
     205      69     1   -0.8200            6.648           16.928            6.734  # OW
     206      69     2    0.4100            7.058           16.134            7.324  # HW
     207      69     2    0.4100            6.083           16.462            5.988  # HW
     208      70     1   -0.8200            7.426            7.536           14.950  # OW
     209      70     2    0.4100            6.621            7.628           14.294  # HW
     210      70     2    0.4100            7.075            7.307           15.869  # HW
     211      71     1   -0.8200            3.791            2.167            2.683  # OW
     212      71     2    0.4100            4.245            2.668            1.907  # HW
     213      71     2    0.4100            4.517            2.073            3.381  # HW
     214      72     1   -0.8200            4.582            6.918            3.043  # OW
     215      72     2    0.4100            4.539            6.358            2.125  # HW
     216      72     2    0.4100            4.185            7.893            2.933  # HW
     217      73     1   -0.8200            7.890           18.532           11.023  # OW
     218      73     2    0.4100            6.948           18.517           10.551  # HW
     219      73     2    0.4100            7.750           19.262           11.710  # HW
     220      74     1   -0.8200            4.429           12.242            9.004  # OW
     221      74     2    0.4100            4.762           11.335            8.642  # HW
     222      74     2    0.4100            3.998           12.717            8.214  # HW
     223      75     1   -0.8200           17.030           19.287            4.593  # OW
     224      75     2    0.4100           17.643            0.065            5.432  # HW
     225      75     2    0.4100           16.814           18.278            4.515  # HW
     226      76     1   -0.8200            2.707           16.877            9.336  # OW
     227      76     2    0.4100            2.660           16.384            8.387  # HW
     228      76     2    0.4100            2.803           16.181           10.089  # HW
     229      77     1   -0.8200            9.579           13.433            5.805  # OW
     230      77     2    0.4100            8.610           13.587            6.174  # HW
     231      77     2    0.4100            9.508           12.809            4.939  # HW
     232      78     1   -0.8200           13.030            6.635            7.908  # OW
     233      78     2    0.4100           13.122            5.959            8.682  # HW
     234      78     2    0.4100           13.578            6.258            7.133  # HW
     235      79     1   -0.8200           18.215            0.550            2.059  # OW
     236      79     2    0.4100           17.720            0.523            2.955  # HW
     237      79     2    0.4100           19.178            0.876            2.295  # HW
     238      80     1   -0.8200           13.747           10.420           15.655  # OW
     239      80     2    0.4100           13.171           10.758           14.925  # HW
     240      80     2    0.4100           14.588            9.930           15.387  # HW
     241      81     1   -0.8200            3.289           13.333            2.286  # OW
     242      81     2    0.4100            4.016           12.766            1.802  # HW
     243      81     2    0.4100            2.371           12.841            2.110  # HW
     244      82     1   -0.8200           19.154           12.694           16.106  # OW
     245      82     2    0.4100           19.009           12.928           15.141  # HW
     246      82     2    0.4100            0.444           11.925           16.205  # HW
     247      83     1   -0.8200            9.879           11.425            1.155  # OW
     248      83     2    0.4100            9.137           11.447            0.386  # HW
     249      83     2    0.4100           10.680           12.072            1.003  # HW
     250      84     1   -0.8200            4.944           14.479           15.179  # OW
     251      84     2    0.4100            4.695           14.131           14.231  # HW
     252      84     2    0.4100            4.173           14.818           15.683  # HW
     253      85     1   -0.8200            7.449           11.438           15.029  # OW
     254      85     2    0.4100            7.379           12.408           14.977  # HW
     255      85     2    0.4100            8.352           11.114           14.589  # HW
     256      86     1   -0.8200           12.464            0.872           14.181  # OW
     257      86     2    0.4100           12.467            0.212           14.929  # HW
     258      86     2    0.4100           11.849            0.547           13.389  # HW
     259      87     1   -0.8200           17.952           15.307            5.826  # OW
     260      87     2    0.4100           17.477           15.018            6.730  # HW
     261      87     2    0.4100           18.161           14.451            5.311  # HW
     262      88     1   -0.8200            9.390           12.955            8.535  # OW
     263      88     2    0.4100           10.108           13.141            7.839  # HW
     264      88     2    0.4100            9.159           11.971            8.411  # HW
     265      89     1   -0.8200            1.485           16.780           18.930  # OW
     266      89     2    0.4100            1.601           17.779           18.745  # HW
     267      89     2    0.4100            0.591           16.451           18.530  # HW
     268      90     1   -0.8200            4.341           16.806           18.402  # OW
     269      90     2    0.4100            4.576           16.211           19.196  # HW
     270      90     2    0.4100            3.269           16.699           18.315  # HW
     271      91     1   -0.8200            0.523            8.495           13.598  # OW
     272      91     2    0.4100            0.852            8.288           12.647  # HW
     273      91     2    0.4100            1.357            8.737           14.016  # HW
     274      92     1   -0.8200            2.288           18.781            4.569  # OW
     275      92     2    0.4100            1.596           18.067            4.827  # HW
     276      92     2    0.4100            3.084           18.261            4.142  # HW
     277      93     1   -0.8200            3.348           13.801            4.926  # OW
     278      93     2    0.4100            3.425           12.835            5.389  # HW
     279      93     2    0.4100            3.458           13.598            3.896  # HW
     280      94     1   -0.8200           18.893            4.717           13.388  # OW
     281      94     2    0.4100            0.531            4.630           13.496  # HW
     282      94     2    0.4100           18.640            4.348           12.508  # HW
     283      95     1   -0.8200            9.393           14.338           11.942  # OW
     284      95     2    0.4100            8.966           15.273           12.119  # HW
     285      95     2    0.4100            9.952           14.411           11.084  # HW
     286      96     1   -0.8200            0.171            6.090            9.878  # OW
     287      96     2    0.4100           19.081            5.367           10.454  # HW
     288      96     2    0.4100            0.034            5.975            8.851  # HW
     289      97     1   -0.8200            2.427           14.394           16.253  # OW
     290      97     2    0.4100            1.734           15.063           15.957  # HW
     291      97     2    0.4100            2.245           13.482           15.776  # HW
     292      98     1   -0.8200           17.319            8.196            9.436  # OW
     293      98     2    0.4100           16.562            7.591            9.839  # HW
     294      98     2    0.4100           18.150            7.624            9.428  # HW
     295      99     1   -0.8200           10.556            6.919            6.766  # OW
     296      99     2    0.4100           10.384            7.874            7.116  # HW
     297      99     2    0.4100           11.403            6.663            7.321  # HW
     298     100     1   -0.8200            8.948           16.863           12.873  # OW
     299     100     2    0.4100            9.187           17.382           13.694  # HW
     300     100     2    0.4100            8.497           17.451           12.107  # HW
     301     101     1   -0.8200            1.236            1.736            3.273  # OW
     302     101     2    0.4100            1.438            0.920            3.956  # HW
     303     101     2    0.4100            2.160            1.908            2.834  # HW
     304     102     1   -0.8200            5.891           13.872           10.717  # OW
     305     102     2    0.4100            5.030           13.429           10.299  # HW
     306     102     2    0.4100            5.506           14.540           11.413  # HW
     307     103     1   -0.8200            2.163           15.153            7.150  # OW
     308     103     2    0.4100            1.521           14.312            7.355  # HW
     309     103     2    0.4100            2.612           14.861            6.268  # HW
     310     104     1   -0.8200            6.494           18.435            2.086  # OW
     311     104     2    0.4100            6.445           18.147            1.073  # HW
     312     104     2    0.4100            6.665           19.388            2.123  # HW
     313     105     1   -0.8200            9.031            2.116            8.298  # OW
     314     105     2    0.4100            9.534            1.473            7.700  # HW
     315     105     2    0.4100            8.109            1.706            8.438  # HW
     316     106     1   -0.8200           15.343            2.106           16.996  # OW
     317     106     2    0.4100           14.303            2.051           17.187  # HW
     318     106     2    0.4100           15.614            3.100           17.364  # HW
     319     107     1   -0.8200            2.232           11.238           16.207  # OW
     320     107     2    0.4100            3.103           10.777           16.127  # HW
     321     107     2    0.4100            2.258           11.687           17.187  # HW
     322     108     1   -0.8200           15.899            9.262           14.839  # OW
     323     108     2    0.4100           16.442           10.088           14.603  # HW
     324     108     2    0.4100           16.557            8.458           14.844  # HW
     325     109     1   -0.8200            1.905            6.031           15.083  # OW
     326     109     2    0.4100            1.191            6.313           15.815  # HW
     327     109     2    0.4100            1.852            5.002           14.845  # HW