LAMMPS data file via write_data, version 3 Nov 2022, timestep = 5000

800 atoms
5 atom types
528 bonds
2 bond types
288 angles
2 angle types

0 20.12429 xlo xhi
0 20.12429 ylo yhi
0 20.12429 zlo zhi

Masses

1 15.9994
2 1.008
3 15.9994
4 1.008
5 35.45

PairIJ Coeffs # lj/cut/coul/long

1 1 0.155425 3.16549 9
1 2 0 1.58274 9
1 3 0.1238 3.142 9
1 4 0.00250763 1.58274 9
1 5 0.152688 3.60508 9
2 2 0 0 9
2 3 3 1.6 9
2 4 0 0 9
2 5 0 2.02234 9
3 3 0.0986097 3.11851 9
3 4 0.00199739 1.55925 9
3 5 0.12162 3.58159 9
4 4 4.0458e-05 0 9
4 5 0.00246347 2.02234 9
5 5 0.15 4.04468 9

Angle Coeffs # harmonic

1 37.95 113.24
2 38.7434 111.727

Atoms # full

41 14 2 0.41 8.810672590354347 1.0637886795187477 1.3042863678509629 0 0 0
471 157 2 0.41 6.8986838133936335 6.817595803694378 0.9391175747543788 0 0 0
740 245 4 0.44 1.246911038929726 2.4153041046739476 2.9019606224583407 0 0 0
606 202 4 0.44 6.6356608287804315 4.8327131427484655 3.438558704572727 0 0 0
321 107 2 0.41 9.73973210566921 3.9847378393453234 3.628764612388627 0 0 0
750 248 2 0.41 2.692259597352972 7.126605999516479 1.4405249493459664 0 0 1
319 107 1 -0.82 9.166716210026916 3.3607726606466497 3.0152593857863295 0 0 0
751 248 2 0.41 1.147367839935634 7.24380098269861 1.968913733851007 0 0 0
201 67 2 0.41 4.41257339871209 5.407815055255001 1.0452786187318588 0 0 1
301 101 1 -0.82 6.0538413560914 8.06477256512771 1.0600424186906123 0 0 0
302 101 2 0.41 5.6520105513481536 8.837237073614155 0.5158232606951171 0 0 0
303 101 2 0.41 6.871427380500079 8.46210803312824 1.5708031453445408 0 0 0
199 67 1 -0.82 4.05999336964769 6.293702476178399 1.4257534097162599 0 0 1
320 202 4 0.44 7.841849263280877 3.9292097928552274 2.7782991160244532 0 0 0
712 238 1 -0.82 6.805444298607079 0.06916605764325313 2.73509778717725 0 0 0
787 259 5 -1 8.706334963283552 9.206929674012228 2.069341977051524 0 0 0
382 128 1 -0.82 2.8988422593419143 4.7908502920514655 3.6341753391443246 0 0 0
781 256 1 -0.82 9.947930082434553 0.8623141253000349 2.622144986524223 0 0 0
384 128 2 0.41 2.099756759679376 5.398790957916889 3.6487426661213997 0 0 0
113 38 2 0.41 4.804235735397059 3.2576237818466263 1.3109250747008183 0 0 1
788 260 5 -1 0.41556867665468983 6.655122032844001 3.6811720739681593 0 0 0
737 245 3 -0.32 2.2095398554984964 2.4655062773466665 3.4288687257228476 0 0 0
749 248 1 -0.82 1.7457620059858328 7.494072326409671 1.1651422371385654 0 0 1
738 245 4 0.44 2.538572829084479 3.4812521073713127 3.5519337833227334 0 0 0
604 202 3 -0.32 6.878462625707807 4.304563323364728 2.6153837097376584 0 0 0
605 202 4 0.44 7.079228213042549 5.026379489281733 1.716100770221951 0 0 0
40 14 1 -0.82 8.130423615802808 1.1958093366577494 0.5314523581000214 0 0 1
200 67 2 0.41 4.833404690868573 6.930208386184852 1.188555804360535 0 0 1
713 238 2 0.41 7.294044539720311 0.5586009150882273 1.975013265762317 0 0 0
469 157 1 -0.82 7.344520062725228 5.859291971928241 0.8665046132066455 0 0 1
714 238 2 0.41 6.84023418498748 0.7626432086035898 3.49390086375878 0 0 0
782 107 2 0.41 9.48347607329823 2.377980796975127 2.93087687817503 0 0 0
470 157 2 0.41 8.315153879480958 5.865986459295722 0.5647998806102132 0 0 1
112 38 1 -0.82 5.003893246799034 3.9455481864175694 0.5655186608141938 0 0 1
110 37 2 0.41 7.4528180476464625 9.396875726185288 3.753616303012881 0 0 0
383 128 2 0.41 3.645223946991234 5.336155255416781 3.1760989795176724 0 0 0
784 256 2 0.41 9.954539371849764 0.0594727692312151 3.2672267179383905 0 0 0
244 82 1 -0.82 0.0008416367149968783 2.2771098307035826 2.4349103932146847 0 0 0
42 14 2 0.41 8.356652550192297 2.1137233093556804 0.026282544815984465 0 0 1
196 66 1 -0.82 6.155751948173861 5.4976980660177075 4.697728043042437 0 0 0
800 272 5 -1 2.6105401859511455 1.5987180740807123 6.139782298881757 0 0 0
248 83 2 0.41 5.4639494317936155 3.611300836489415 7.315907565698253 0 0 0
540 180 2 0.41 1.1953936599011805 0.9218645317471271 7.762654780584964 0 0 0
145 49 1 -0.82 2.5768864442534194 4.915744160230208 7.64876693310678 0 0 0
775 254 2 0.41 2.5914946681432474 6.384513873460923 7.511012674721439 0 0 0
37 13 3 -0.32 1.2674162238179136 9.00891829819314 7.419223030156853 0 0 0
776 13 4 0.44 2.119417654221388 8.323185051749785 7.480124705054412 0 0 0
111 37 2 0.41 5.957253443907993 9.098107788158675 4.33540482117587 0 0 0
739 245 4 0.44 2.196234936849305 2.168445146146052 4.416627823453563 0 0 0
197 66 2 0.41 5.942696485855455 4.798871476485724 5.4511562636764666 0 0 0
480 160 2 0.41 3.9314306492601006 0.39669191750796623 4.679199051363604 0 0 0
663 221 2 0.41 4.327534771386187 0.7965624504040207 6.899403978106805 0 1 0
53 18 2 0.41 9.218710946280558 4.373296739024773 6.7742355947311905 0 0 0
247 83 1 -0.82 5.377548308966987 3.56255666556976 6.236641019234213 0 0 0
622 208 1 -0.82 0.9834374521395465 9.414465174090013 4.988257375924929 0 0 0
249 83 2 0.41 4.575794078571057 2.9112647868665733 6.107267536010349 0 0 0
481 161 1 -0.82 6.526174116850696 7.697120035550157 7.344181091682541 0 0 0
138 46 2 0.41 8.39607684911219 0.597531747128108 7.695245353552232 0 0 0
52 18 1 -0.82 8.94024763120549 3.3773189969228854 6.728804656217373 0 0 0
665 222 2 0.41 5.394530868671464 8.196243674055916 6.117204518752456 0 0 0
773 254 1 -0.82 2.8645960640768187 7.378389943518805 7.471353366254356 0 0 0
664 222 1 -0.82 4.63068891882252 7.832437967088815 5.514955543324118 0 0 0
147 49 2 0.41 1.8938692214598316 4.275344601760749 7.28053056995002 0 0 0
666 222 2 0.41 3.806847203422109 7.525478025088796 6.03257104378486 0 0 0
198 66 2 0.41 5.806662454284901 6.46323013213504 5.020391648787903 0 0 0
556 186 1 -0.82 6.996113155318383 1.8078186162945062 4.833493832211751 0 0 0
557 186 2 0.41 7.978948940741531 2.0306204863225594 5.101421131246504 0 0 0
558 186 2 0.41 6.483272567805618 2.628734890659029 5.280725150845639 0 0 0
38 13 4 0.44 0.5204328246906285 8.233053186639955 7.496987729208577 0 0 0
39 13 4 0.44 1.0000226225510203 9.208530043791265 6.39524980261856 0 0 0
54 18 2 0.41 8.401563674103569 3.0924699506692073 7.559945102413064 0 0 0
109 37 1 -0.82 6.708586155997491 9.714767688671612 4.407131310737813 0 0 0
661 221 1 -0.82 4.849834400651799 0.030643395043096475 7.40780814456056 0 1 0
482 161 2 0.41 7.426094086760906 8.029107575031185 7.10958300559335 0 0 0
438 146 2 0.41 0.16733139333474248 5.403397958727245 5.587487290081186 0 0 0
624 208 2 0.41 0.8133039282479408 8.5635218223553 4.456006662892111 0 0 0
623 208 2 0.41 0.049026069887511056 9.889454726066795 4.8887954970192204 0 0 0
535 179 1 -0.82 9.909864475643001 8.488387445040162 7.538000021130931 0 0 0
536 179 2 0.41 9.975314102750795 8.919473285022494 6.609599340589944 0 0 0
636 212 2 0.41 9.741912103354254 6.7593665434954735 7.437443128178021 0 0 0
137 46 2 0.41 6.880527890092767 1.2147128962911191 7.932482234120759 0 1 0
634 212 1 -0.82 10.057646269134622 5.782422677797393 7.191978136348858 0 0 0
603 201 2 0.41 3.406880761226881 2.390170487502265 11.957949849643366 0 0 0
88 30 1 -0.82 6.0572160777561015 5.77745285111412 11.852399509062046 0 0 0
89 30 2 0.41 5.256160537092231 6.408375687814356 11.778988500852739 0 0 0
143 48 2 0.41 2.503844652791964 5.627116776303367 10.2260767346432 0 0 0
415 139 1 -0.82 9.995924659766267 4.662791781945913 9.65873988251459 0 0 0
537 179 2 0.41 9.505854779155397 9.09873403591027 8.255053998270395 0 0 0
232 78 1 -0.82 0.08477912805069329 4.967443223127195 11.38025024042684 0 0 0
142 48 1 -0.82 3.0732758910857156 4.750608379678993 10.172581413045966 0 0 0
754 249 2 0.41 0.3269116905937679 1.7420455449686025 9.831577836053347 0 0 0
67 23 1 -0.82 9.651110632697499 1.9490297527612714 10.281520973033766 0 0 0
683 228 2 0.41 4.125053143260817 8.00179922387977 10.53797540194033 0 0 0
256 86 1 -0.82 6.282466168414683 1.3520073212673198 10.863606973487544 0 0 0
539 180 2 0.41 1.884676255443452 0.09839644188740798 8.926917597057665 0 0 0
258 86 2 0.41 6.842063431234676 1.967073023203838 10.235340472557514 0 0 0
774 254 2 0.41 3.5055242004289147 7.560310930997807 8.266970832155648 0 0 0
538 180 1 -0.82 1.0067156331963742 0.6674625964187949 8.720830387620273 0 0 0
136 46 1 -0.82 7.873825716739307 1.3036900650638215 8.234113917484084 0 0 0
613 205 1 -0.82 5.661957647086218 3.72063600349568 8.79995438552597 0 0 0
614 205 2 0.41 4.740588294505703 3.9851002048894353 9.163543415683234 0 0 0
615 205 2 0.41 6.285290337610989 4.55253740125658 8.949829060788122 0 0 0
655 219 1 -0.82 7.192741642053913 5.796690355398423 9.355509891125719 0 0 0
656 219 2 0.41 6.74642329935788 6.044672481331298 10.285622171373111 0 0 0
657 219 2 0.41 8.134205727757243 5.500310493753359 9.671504925947852 0 0 0
233 78 2 0.41 0.3028973292850335 5.761251880504349 10.765140596180832 0 0 0
682 228 1 -0.82 4.196657377901069 8.41822911709674 9.618647002649361 0 0 0
676 226 1 -0.82 1.1476184840318822 7.172477885376254 10.197845833497272 0 0 0
483 161 2 0.41 6.62166156197037 7.065651520435681 8.12200321721475 0 0 0
684 228 2 0.41 5.0061602123652555 9.02893378639364 9.718667441757994 0 0 0
73 25 1 -0.82 3.585205860245155 0.5656591519747098 11.497311619249306 0 0 0
69 23 2 0.41 9.041256452000447 1.787963027023198 9.460825140921832 0 0 0
48 16 2 0.41 6.828072022803842 9.533287786706977 11.784189822816233 0 0 0
146 49 2 0.41 2.7544036396060307 4.445642304212567 8.567681673506852 0 0 0
144 48 2 0.41 3.076612552118606 4.282527193213633 11.116478527520721 0 0 0
678 226 2 0.41 0.6216844134599099 7.05147540253916 9.304649507266452 0 0 0
257 86 2 0.41 6.632437131326019 0.4279552353993187 10.837950244975564 0 0 0
677 226 2 0.41 0.6862122504226624 7.867427593568798 10.80345795444766 0 0 0
75 25 2 0.41 4.616146942634837 0.6531547045910512 11.521816062266081 0 0 0
68 23 2 0.41 9.700375344970412 2.9385989988418135 10.477981682502966 0 0 0
46 16 1 -0.82 6.296865068690856 9.867928279181928 10.957169257536277 0 0 0
486 162 2 0.41 8.364125364806329 1.8716600159283283 11.977531181086448 0 0 0
58 20 1 -0.82 5.443991510584071 6.915543229327849 15.139463215259434 0 0 0
729 243 3 -0.32 6.301542196264538 2.1756447515360433 15.896183041714435 0 0 0
60 20 2 0.41 6.449843459321658 6.746515662597172 15.006983315758228 0 0 0
612 204 2 0.41 1.5959711101544545 9.176768336819478 14.538142602030012 0 0 0
786 258 5 -1 8.228279709547 6.247032420741495 14.309719450441873 0 0 0
83 28 2 0.41 9.254731554601785 4.497223405737202 14.689854829913028 0 0 0
610 204 1 -0.82 2.169808385582393 9.44153286425343 13.764147517488361 0 0 0
730 243 4 0.44 5.8531085534195375 1.2793111895485614 15.59727656177692 0 0 0
718 240 1 -0.82 4.185513059320634 7.80621270196308 12.697670113660585 0 0 0
719 240 2 0.41 3.397587744049841 8.375348131073064 13.008955879512115 0 0 0
82 28 1 -0.82 9.73060934416262 3.6170228670840534 14.819529658595542 0 0 0
702 234 2 0.41 5.429073100726474 3.5466006377888952 13.20848382182673 0 0 0
90 30 2 0.41 6.617467405107297 5.9602966934122215 12.681704286932206 0 0 0
335 112 2 0.41 9.539521964066433 6.630860987468902 15.551028327735212 0 0 0
183 61 2 0.41 8.160853876993427 8.22862411829569 13.53447450810856 0 0 0
649 217 1 -0.82 2.97243703900111 6.061802207067374 15.496348644694478 0 0 0
346 116 1 -0.82 3.468356925165174 2.8791905053576774 15.207124557828497 0 0 0
731 243 4 0.44 6.330546751996373 2.799384665019062 15.092280686555432 0 0 0
720 240 2 0.41 4.7122863600325715 7.543829904374456 13.52597989945184 0 0 0
484 162 1 -0.82 8.118453142038193 1.7567041748840955 12.909410699757085 0 0 0
700 234 1 -0.82 6.084877697855536 3.672269187071459 13.965108155101282 0 0 0
347 116 2 0.41 2.4596958233691426 2.530416414681089 15.200128052672017 0 0 0
601 201 1 -0.82 2.9954765794467 3.1675187297819667 12.492694812679014 0 0 0
602 201 2 0.41 3.251889761250163 3.3439021149988184 13.452970392087261 0 0 0
59 20 2 0.41 5.43600208159603 7.487708078744576 16.022548889344957 0 0 0
692 231 2 0.41 9.66400118943328 5.913913338782419 12.748774657962503 0 0 0
84 28 2 0.41 9.2177379653244 2.9526089240648488 14.219887630482784 0 0 0
701 234 2 0.41 6.343692610394227 4.712799024606288 13.932278555069631 0 0 0
651 217 2 0.41 3.8686839284568078 6.254201035957807 15.156107544408421 0 0 0
182 61 2 0.41 8.582084147503602 9.558574224132881 12.542716975539744 0 0 0
485 162 2 0.41 7.134022016787675 1.9342802259526881 12.954127551664694 0 1 0
611 204 2 0.41 1.5606318999832247 9.56664065810512 12.92572398011341 0 0 0
650 217 2 0.41 2.841820752715264 5.050408778615966 15.772045221356366 0 0 0
79 27 1 -0.82 1.954507193956626 0.6655419898200494 13.740573309119366 0 1 0
500 167 4 0.44 0.8249539631934544 0.6909071471462028 12.924437384324913 0 1 0
80 27 2 0.41 2.698359284097133 0.7574816136585322 13.043163526141232 0 1 0
502 168 1 -0.82 5.268358250084848 0.08195816690870011 15.54319269463327 0 1 0
181 61 1 -0.82 7.8170320272153475 9.107309776249647 13.091095264907315 0 0 0
62 21 2 0.41 2.3344073552639704 7.471100972042638 15.91996619814183 1 0 0
348 116 2 0.41 4.020397679993193 2.2641923403943807 15.77475284458245 0 0 0
234 78 2 0.41 0.7074035660633983 4.931375497459413 12.12298439901951 0 0 0
63 21 2 0.41 1.418878123433584 7.956832214881978 17.299093905087624 1 0 0
487 163 1 -0.82 0.6931228956684862 2.506764252635115 18.634034044877676 0 0 0
106 36 1 -0.82 5.885652884680752 8.909070636087515 17.983563104775776 0 0 0
107 36 2 0.41 5.9121858134074134 9.597464915169258 17.223467756435266 0 0 0
108 36 2 0.41 5.837257761131553 9.454390788125512 18.82370011686425 0 0 0
716 239 4 0.44 9.462982000606045 9.114818208258878 17.481148448385085 0 0 0
732 243 4 0.44 7.279382952680948 1.7058027694218403 16.31047201987513 0 0 0
488 163 2 0.41 0.12226553144128052 1.6887802605219409 18.865117656954556 0 0 0
187 63 3 -0.32 1.2025549784303826 7.070611988971133 18.96240397979291 0 0 0
188 63 4 0.44 0.19516208718129457 6.884074592774115 18.91632657124382 0 0 0
189 63 4 0.44 1.8244625690845364 6.275215676603291 18.647153919912828 0 0 0
584 195 2 0.41 9.493139787493924 7.18895771751642 19.16063759150531 0 0 0
595 199 1 -0.82 9.28681994101072 3.200781433017701 18.93225683194691 0 0 0
752 63 4 0.44 1.4299915692874374 7.183038858548512 20.04097752228014 0 0 0
288 96 2 0.41 5.995684739522106 5.424320533763048 17.332538991816083 0 0 0
287 96 2 0.41 5.837118894012574 6.911557211749789 18.073688976305014 0 0 0
314 105 2 0.41 3.903167313266654 1.495243925746806 18.615009953165448 0 1 0
597 199 2 0.41 9.624693135702282 3.977669532579857 18.365323470560778 0 0 0
697 233 1 -0.82 2.7919774917167706 5.320931498259064 18.506172377140985 0 0 0
264 88 2 0.41 2.9064937078442425 9.490550679974303 16.513697860589478 0 0 0
698 233 2 0.41 3.743145141850575 5.70102242082167 18.259994401874177 0 0 0
699 233 2 0.41 2.87297123127968 4.316701368139398 18.66311636341738 0 0 0
286 96 1 -0.82 5.485132128610689 5.990183424881201 18.087338920211124 0 0 0
596 199 2 0.41 9.186704222937733 2.4825013350509653 18.275181689147 0 0 0
61 21 1 -0.82 1.8209501938943427 8.21484583349773 16.423011418137595 1 0 0
489 163 2 0.41 0.39726586835649746 2.686358812279572 17.65011898620756 0 0 0
313 105 1 -0.82 3.6954448762188603 2.418675641235036 18.217765127294776 0 0 0
583 195 1 -0.82 9.588371752479267 6.437766331438336 19.88293191846828 0 0 0
309 103 2 0.41 8.008203451971642 0.5904854937070562 17.618966067268733 0 0 0
715 239 3 -0.32 9.854020995420036 8.243869739674555 17.895625761053175 0 0 0
307 103 1 -0.82 8.31277924087566 1.3298495818286171 16.909388947739153 0 0 0
315 105 2 0.41 2.674262826865643 2.3860847868661477 18.140303887271877 0 0 0
114 38 2 0.41 5.1699521362531735 3.4144821916836157 19.807906138521165 0 0 0
308 103 2 0.41 9.044859858953531 0.8899050872014997 16.402404813088275 0 1 0
652 218 1 -0.82 8.423576927839317 9.972871450101179 16.381381925107554 0 0 0
527 176 2 0.41 7.4576294781133825 0.2003083455126395 19.594185100185584 0 0 0
653 218 2 0.41 7.404954388810926 9.990724146482624 16.19983134691884 0 0 0
16 6 1 -0.82 6.329447670179417 11.806861266508088 2.2371331495368496 0 0 0
17 6 2 0.41 7.128517558292764 12.374834959307115 2.5385984380005917 0 0 0
420 140 2 0.41 0.5799621987568037 14.473548829798863 0.37138399246092296 0 0 0
217 73 1 -0.82 0.7937831665494007 17.422149880905412 3.1795748698053434 0 0 0
130 44 1 -0.82 7.108317458013383 15.55222159194958 0.6063894760935497 0 0 0
131 44 2 0.41 7.19839861337542 15.026409373656598 1.512993128610989 0 0 0
132 44 2 0.41 6.401133948502882 16.265190614365252 0.7279468869240148 0 0 0
725 242 1 -0.82 9.284294144020881 17.167041012889268 0.7896489969779151 0 0 0
727 242 2 0.41 9.16398978787064 17.510388981506775 1.7331301730145205 0 0 0
626 209 2 0.41 9.584253141760506 11.416753466616747 2.5508457345222566 0 0 0
176 59 2 0.41 4.587286109488308 12.337817698560366 2.2201451958269196 0 0 0
345 115 2 0.41 3.9418492900945794 16.209096526085723 3.3901736007383754 0 0 0
343 115 1 -0.82 4.066770416086931 15.204793669810305 3.6788019939557755 0 0 0
565 189 1 -0.82 1.722401321875912 12.720295246492064 0.4609339462148206 0 0 0
726 242 2 0.41 8.462648083286068 16.622132062126678 0.5263745433204793 0 0 0
157 53 1 -0.82 5.185107164987386 17.326339721034802 0.5448292005449302 0 0 1
177 59 2 0.41 3.909593399853569 13.832395926062018 2.6712150125460696 0 0 0
333 111 2 0.41 2.818272078411008 11.991348993205197 3.6608803721885605 0 0 0
512 171 2 0.41 5.58279606340138 10.984264663452567 0.9113793721405137 0 0 0
93 31 2 0.41 7.705388625270466 18.72752333168433 3.0704978069559203 0 -1 0
543 181 2 0.41 8.961107822266936 13.911924701415575 2.7029868312266063 0 0 0
433 145 1 -0.82 3.497057081287805 17.567370345923045 2.580003485361284 0 0 0
434 145 2 0.41 4.069901108822908 18.08997517053116 3.270084319057513 0 0 0
435 145 2 0.41 2.473510134911505 17.504565636355117 2.777113227659918 0 0 0
158 53 2 0.41 4.5437629198885725 17.46752835446817 1.3563920365260658 0 0 1
567 189 2 0.41 2.302367055442998 12.855187014131475 1.2824158376953125 0 0 0
91 31 1 -0.82 8.588558132020452 18.111619938265036 3.151121676978775 0 -1 0
541 181 1 -0.82 8.040573044272927 14.250163078058167 3.0424030191259477 0 0 0
175 59 1 -0.82 3.6879069229870494 12.863800732162167 2.3318052194007257 0 0 0
218 73 2 0.41 0.23085649432272504 16.592367078917174 3.3440857373027124 0 0 0
18 6 2 0.41 6.722157621925357 10.92160336599709 2.5380610094628815 0 0 0
165 55 2 0.41 8.642959202424976 10.302970972153025 0.302418919007154 0 0 0
511 171 1 -0.82 5.391992462366073 10.49142307649101 0.00871031665161378 0 0 0
479 160 2 0.41 5.000200477178768 19.933966330502773 3.490219429666278 0 -1 0
474 158 2 0.41 0.4779450875171464 11.477206074653498 0.551696679602905 0 0 1
78 26 2 0.41 3.3193901923303026 14.955118735779728 7.206076923215438 0 0 0
331 111 1 -0.82 2.3051844356361735 11.812022445387697 4.535954782640607 0 0 0
207 69 2 0.41 8.380107524557815 15.352001398724873 7.416682972640539 0 0 0
799 271 5 -1 8.495514873351253 13.91408361535109 5.995411869471525 0 0 0
703 235 1 -0.82 5.763244589098016 15.871495038831634 5.773426629438873 0 0 0
265 89 1 -0.82 6.735784501991068 11.444549212695582 6.725947967540763 0 0 0
266 89 2 0.41 6.721404328931763 10.973977842556648 5.769392490499692 0 0 0
267 89 2 0.41 7.016829329987796 12.413026545083946 6.673499167017535 0 0 0
648 216 2 0.41 5.808836597361197 18.910778243731965 4.963438143591851 0 0 0
708 236 2 0.41 9.630806167507139 10.296357701354319 4.980199454322258 0 0 0
272 91 2 0.41 0.29696814857025994 14.332264209151377 6.649189645126669 0 0 0
354 118 2 0.41 2.8780562606873814 12.77023055898592 7.05557355497769 0 0 0
704 235 2 0.41 6.299225507168596 16.75012253048839 5.8499383921074655 0 0 0
77 26 2 0.41 4.460224353335278 16.056837245226763 6.7723201357944225 0 0 0
542 181 2 0.41 7.960624424940762 14.22177733239858 4.087602079603716 0 0 0
219 73 2 0.41 1.1474371522407298 17.631646167847546 4.129848385955826 0 0 0
352 118 1 -0.82 3.218208328884863 13.437870507050722 6.433806298856984 0 0 0
271 91 1 -0.82 0.20047237573855387 14.978370914634453 7.416771729219059 0 0 0
278 93 2 0.41 1.0169130528436812 12.901988649600948 5.10226379839234 0 0 0
553 185 1 -0.82 2.074517292220443 18.159695591998194 5.440989173202354 0 0 0
554 185 2 0.41 2.2229208181925677 17.627448463110788 6.263174243148701 0 0 0
646 216 1 -0.82 6.317799623740638 18.576614792943214 5.849603586306403 0 0 0
555 185 2 0.41 2.7908230485045427 18.86512232720465 5.3694438218440785 0 0 0
76 26 1 -0.82 3.6296750424411606 15.92267542931833 7.425559004167735 0 0 0
662 221 2 0.41 5.4436165907815415 19.55667627575578 6.768657577233288 0 0 0
332 111 2 0.41 1.8289939191264724 10.915890120674318 4.609751309118266 0 0 0
353 118 2 0.41 3.053372948836606 12.944743321990334 5.514114803703291 0 0 0
705 235 2 0.41 6.445149951315741 15.15926397628641 5.56374105518099 0 0 0
647 216 2 0.41 7.329835717562288 18.844500780339313 5.82203488060638 0 0 0
790 262 5 -1 9.54479415067693 19.210216593172024 5.948252743144206 0 0 0
344 115 2 0.41 4.616530480844126 15.262419487650293 4.545313102565313 0 0 0
92 31 2 0.41 8.882112487315563 18.2924753200003 4.12806714786222 0 -1 0
478 160 1 -0.82 4.420238666913996 19.689640241039406 4.288237693539528 0 0 0
87 29 2 0.41 9.807001628877869 15.682270042052219 5.3602468201302935 0 0 0
277 93 1 -0.82 0.03072758368412702 13.068735665707031 5.395063925876328 1 0 0
391 131 1 -0.82 9.328359977656774 18.57872989220208 9.163438109939461 0 0 0
393 131 2 0.41 9.116277985320185 18.44235097671759 8.15320001090039 0 0 0
297 99 2 0.41 9.570060615319216 11.123019250709106 11.705236879377727 0 0 0
628 210 1 -0.82 6.190429320394614 17.776900635854346 9.138443929509965 0 0 0
629 210 2 0.41 6.8047247802700035 17.00788494661322 8.772087921543614 0 0 0
227 76 2 0.41 7.559907718475965 10.271630941402922 9.68542186879418 0 0 0
329 110 2 0.41 1.7694690196541691 14.174981018319682 9.999107743020664 1 0 0
226 76 1 -0.82 8.286682846145865 10.34664362129059 8.943509019255922 0 0 0
242 81 2 0.41 2.9412032371443444 18.190834145579803 9.456180714193072 0 0 0
160 54 1 -0.82 3.5898793154531456 14.448394276691264 10.909005399559907 0 0 0
161 54 2 0.41 3.194465756635364 14.314304391634915 11.832303313234766 0 0 0
162 54 2 0.41 3.2679522386850137 15.358993238625331 10.50481671589068 0 0 0
243 81 2 0.41 3.712388582420767 19.282017460975343 8.48027858893432 0 0 0
206 69 2 0.41 8.938960210787823 15.66101694045157 8.974954695418779 0 0 0
637 213 1 -0.82 2.2431084414211586 11.43484145441908 8.977017489814305 0 0 0
659 220 2 0.41 2.7092194233597824 16.390756990560092 8.723154798963769 0 0 0
660 220 2 0.41 1.2607436547506166 16.29199160943267 9.682703895166043 0 0 0
241 81 1 -0.82 3.063893596552089 19.181798332793292 9.30559728923523 0 0 0
466 156 1 -0.82 7.438924843451121 19.03662872563733 11.146765936149789 0 0 0
723 241 4 0.44 4.721791037241369 13.873589283738282 10.770070938509381 0 0 0
328 110 1 -0.82 0.9002952625605104 13.734330938911452 9.724819128064796 1 0 0
724 241 4 0.44 6.059703752614967 12.887086669123576 11.212909872284264 0 0 0
468 156 2 0.41 6.704819356528906 18.57721664912924 10.563815271498463 0 0 0
630 210 2 0.41 5.456770942830669 18.15301147871066 8.451781515754663 0 0 0
721 241 3 -0.32 5.6286822928093 13.370292216031247 10.38258039996111 0 0 0
47 16 2 0.41 5.506188539509579 10.495708339760686 11.270839605237278 0 0 0
467 156 2 0.41 8.192347173353 19.194357129094115 10.515094897320564 0 -1 0
392 131 2 0.41 8.919233017161854 17.80918082099004 9.673963059595401 0 0 0
639 213 2 0.41 1.5725503174994042 12.260815617634856 9.214399513834584 0 0 0
658 220 1 -0.82 2.292131054380693 16.492733173231432 9.626424833259472 0 0 0
722 241 4 0.44 5.372103448074772 12.649203070211422 9.630097644245508 0 0 0
296 99 2 0.41 9.333542065937863 12.704858784340422 11.283897709472715 0 0 0
205 69 1 -0.82 8.317311819286344 16.03713824096763 8.235385136387833 0 0 0
496 166 1 -0.82 5.14736292702913 11.482883650399252 8.87165076586585 0 0 0
498 166 2 0.41 4.276655697647265 10.971337945896307 8.788645877758233 0 0 0
638 213 2 0.41 1.6849568141550355 10.647853103892878 9.193301476382322 0 0 0
330 110 2 0.41 0.4844102215319603 14.114628236453298 8.837368078139193 1 0 0
74 25 2 0.41 3.282792469710442 20.119774912242594 10.685111702450412 0 -1 0
497 166 2 0.41 5.767833461167229 11.278992214737324 8.054204508361092 0 0 0
228 76 2 0.41 7.8581183799106755 10.60007867759067 8.081710108993487 0 0 0
10 4 1 -0.82 4.5331596988934715 16.86853714411866 13.641751581216372 0 0 0
11 4 2 0.41 5.257240677808571 17.543538983353844 13.558618214996875 0 0 0
12 4 2 0.41 4.837765917780669 16.25745139163866 14.383818864245928 0 0 0
70 24 1 -0.82 3.94855877584203 11.16276233863278 12.177165654541392 0 0 0
674 225 2 0.41 1.6916198855158486 17.506506645653975 14.250066142882357 0 0 0
259 87 1 -0.82 6.531789514225112 12.560296398938663 12.721172094783356 0 0 0
149 50 2 0.41 5.776605030211006 11.699800194123318 15.770446086382064 0 0 0
261 87 2 0.41 7.3935772077396935 12.040625664900976 12.802389695279944 0 0 0
116 39 2 0.41 8.520092533544965 17.54666659899845 15.655498571865598 0 0 0
65 22 2 0.41 0.673405189682535 13.475079278312256 12.811812676928758 0 0 0
117 39 2 0.41 9.084148620667017 16.504266746624303 14.4118872432196 0 0 0
127 43 1 -0.82 6.845644692430948 18.56634643601989 13.865622834013555 0 0 0
128 43 2 0.41 7.793781843485729 18.285450488255044 14.175882759369596 0 0 0
129 43 2 0.41 6.821859849907478 18.789247085885805 12.849098004139275 0 0 0
72 24 2 0.41 3.95812549298636 10.516236277327476 12.873361222702798 0 0 0
211 71 1 -0.82 5.255475971833024 13.284522157808942 14.827758792752421 0 0 0
212 71 2 0.41 5.482061947473297 14.144786131758595 15.318308306560969 0 0 0
213 71 2 0.41 4.402936001502664 13.560513065620938 14.406274538337831 0 0 0
260 87 2 0.41 6.033354932588884 12.829716781036138 13.61257855326793 0 0 0
81 27 2 0.41 2.310592313072437 19.892095410787146 14.11267386465065 0 0 0
503 168 2 0.41 5.669498443874119 19.43940145802443 15.00668976330019 0 0 0
401 134 2 0.41 1.514100565507761 13.173305598760924 15.321034411586723 0 0 0
789 261 5 -1 2.525516992209643 13.965937767716603 13.570038091298187 0 0 0
493 165 1 -0.82 8.696443077505688 14.889639533375108 13.325315595783088 0 0 0
673 225 1 -0.82 1.0333630793034292 16.834173328957085 13.82994581668799 0 0 0
495 165 2 0.41 7.954609488948279 14.25605699117441 13.070779724176688 0 0 0
115 39 1 -0.82 9.065109287622317 17.45791152372215 14.77076950174274 0 0 0
522 174 2 0.41 2.543047348280406 18.343164716666667 15.985672387643476 0 0 0
675 225 2 0.41 1.5079655726093792 15.999303809750318 13.603885499622358 0 0 0
520 174 1 -0.82 2.716044490320707 18.453545130055584 14.995007985727451 0 0 0
521 174 2 0.41 3.5060564080517063 17.91693069909836 14.652723209805009 0 0 0
654 218 2 0.41 9.02063274446472 10.476015067684854 15.679904439348567 0 0 0
150 50 2 0.41 4.673536650788301 10.68248486596553 15.859796834997802 0 0 0
432 144 2 0.41 0.006118346953718332 16.69404827586564 15.1446453483653 1 0 0
494 165 2 0.41 9.153094237619413 15.062145930472205 12.401971723521882 0 0 0
174 58 2 0.41 9.742862858634782 19.167510236714868 14.8525718702502 0 0 0
172 58 1 -0.82 10.033852776428185 20.083805149903764 15.231509863458424 0 0 0
295 99 1 -0.82 9.350267809291612 12.04882435369451 12.088804176299066 0 0 0
563 188 2 0.41 9.610500920019883 14.436929025098992 14.592814182922849 0 0 0
71 24 2 0.41 3.556981439019749 11.945562841104609 12.717985234379254 0 0 0
453 151 2 0.41 1.880609838052457 15.572174828555767 18.057898128509844 0 0 0
121 41 1 -0.82 6.9612367978928145 14.991521646761374 18.00872389297244 0 0 0
451 151 1 -0.82 1.0704842166736241 15.088739257590834 17.668057666643197 0 0 0
148 50 1 -0.82 5.6630483442359045 10.745451296992492 16.138200196416243 0 0 0
400 134 1 -0.82 1.061483009374638 12.844469147948804 16.21526064704015 0 0 0
375 125 2 0.41 7.7970181538895185 11.691993743090983 19.085266621622676 0 0 0
686 229 2 0.41 4.441260740309898 16.13936137245034 16.70293347477379 0 0 0
402 134 2 0.41 0.9539203916492085 13.69983015387691 16.74694197381286 0 0 0
252 84 2 0.41 9.475681733066653 12.347693222053628 17.882863179700117 0 0 0
262 88 1 -0.82 3.1828401478216852 10.494592760825872 16.771965821616725 0 0 0
123 41 2 0.41 7.059226086245524 15.3041234289858 18.983569572064905 0 0 -1
687 229 2 0.41 5.961961324462816 15.55933099012624 16.926546603233426 0 0 0
268 90 1 -0.82 1.5086688023754788 18.88694040173441 17.479447411606163 0 0 0
269 90 2 0.41 1.0909607469696196 18.43311048641371 18.29691773059886 0 0 0
270 90 2 0.41 2.349285753852002 19.377790628997765 17.780676366540696 0 0 0
452 151 2 0.41 0.35529092501136883 15.124420819985524 18.467069287289004 0 0 0
548 183 2 0.41 3.993514861814318 15.69073273725088 19.127925177543027 0 0 0
159 53 2 0.41 4.963823450914534 18.097311192045805 20.037015569462515 0 0 0
794 266 5 -1 4.52638883718619 19.426893710967533 18.385523765792925 0 0 0
364 122 1 -0.82 8.090406747425666 17.510668755248386 17.21467521467144 0 0 0
365 122 2 0.41 7.63667069897189 16.660617527915477 17.610177573142597 0 0 0
366 122 2 0.41 7.790292682017504 18.28392403286763 17.76348063766278 0 0 0
373 125 1 -0.82 6.976108943631507 12.188432689829728 18.60535560753731 0 0 0
164 55 2 0.41 9.954761651371573 11.332876048001365 19.955754436326817 0 0 -1
355 119 1 -0.82 0.1895682819682388 18.00159749117999 19.539412383716716 0 0 0
528 176 2 0.41 6.3054337833579615 19.666759647717313 18.567175829451212 0 0 0
163 55 1 -0.82 9.016016138846721 11.011750263987546 19.70228983332843 0 0 -1
122 41 2 0.41 7.149560770649072 13.962288667375624 17.959190235789865 0 0 0
570 190 2 0.41 3.2441871345785263 13.046701057547478 18.54796630662024 0 0 0
568 190 1 -0.82 3.5701622660793237 12.142424927938588 18.821907682449922 0 0 0
513 171 2 0.41 4.44200595977363 10.703951363932442 19.79992850130036 0 0 -1
504 168 2 0.41 4.795443036151648 19.805586860650486 16.382581552514687 0 0 0
526 176 1 -0.82 7.365570846869269 19.909129944448328 18.625031986879186 0 0 -1
547 183 1 -0.82 3.448744074141647 16.19089318945205 18.45466579906905 0 0 0
569 190 2 0.41 3.48158577192455 11.59082501455057 17.99300765403579 0 0 0
549 183 2 0.41 3.6268234536572703 17.184515639160637 18.538937129546586 0 0 0